nohup: ignoring input

Running on host lxir127.gsi.de
Time is Sat Jul 27 14:17:03 CEST 2019
Directory is /u/milias/Work/qch/software/My_scripts/local_runs/gsi_de/lxir_nodes/cfour/simple_tests

This node has 20 CPUs.
Internal MKL library parallelization with MKL_NUM_THREADS=20

Working server memory status
             total       used       free     shared    buffers     cached
Mem:          252G       159G        92G       274M       197M       149G
-/+ buffers/cache:        10G       242G
Swap:         1.9G       487M       1.4G
Total:        254G       160G        94G

 Loaded Modules
Currently Loaded Modulefiles:
  1) /compiler/intel/17.4           3) /openmpi/intel/4.0_intel17.4
  2) /ucx/intel/1.5_intel17.4
 --invoking executable--
/lustre/nyx/ukt/milias/work/software/cfour/cfour_v2.00beta_64bit_linux_serial/bin/xjoda


   *************************************************************************
         <<<     CCCCCC     CCCCCC   |||     CCCCCC     CCCCCC   >>>
       <<<      CCC        CCC       |||    CCC        CCC         >>>
      <<<      CCC        CCC        |||   CCC        CCC            >>>
    <<<        CCC        CCC        |||   CCC        CCC              >>>
      <<<      CCC        CCC        |||   CCC        CCC            >>>
       <<<      CCC        CCC       |||    CCC        CCC         >>>
         <<<     CCCCCC     CCCCCC   |||     CCCCCC     CCCCCC   >>>
   *************************************************************************

     ****************************************************************
     * CFOUR Coupled-Cluster techniques for Computational Chemistry *
     ****************************************************************
 

   Department of Chemistry                Institut fuer Physikalische Chemie
   University of Texas at Austin          Universitaet Mainz
   Austin, TX  78712, USA                 D-55099 Mainz, Germany
 
                       Version 2.00beta
 
                     lxir127                                           
                     Sat Jul 27 14:17:05 CEST 2019                     
                     integer*8 version is running
 
********************************************************************************
*                          Input from ZMAT file                                *
********************************************************************************
Geometry optimization of H2O at CCSD(T) level (from the cfour web)              
O                                                                               
H 1 R*                                                                          
H 1 R* 2 A*                                                                     
                                                                                
R=0.958                                                                         
A=104.5                                                                         
                                                                                
*ACES2(CALC=CCSD(T),BASIS=dzp                                                   
CONTRACTION=UNCONTRACTED                                                        
RELATIVISTIC=X2C1E                                                              
GEO_CONV=10                                                                     
CC_CONV=12                                                                      
LINEQ_CONV=12                                                                   
SCF_CONV=12)                                                                    
                                                                                
********************************************************************************
    -------------------------------------------------------------------
                    CFOUR Control Parameters 
    -------------------------------------------------------------------
        External           Internal           Value            Units
          Name               Name
    -------------------------------------------------------------------
       ABCDTYPE             IABCDT         STANDARD     [  0]   ***   
       ANHARMONIC           IANHAR         OFF          [  0]   ***   
       ANH_ALGORIT          IANALG         STANDARD     [  0]   ***   
       ANH_DERIVAT          IANDER         SECOND       [  1]   ***   
       ANH_STEPSIZ          ICUBST             50000          x 10-6  
       ANH_SYMMETR          IANHSM         ABELIAN      [  0]   ***   
       AO_LADDERS           IAOLAD         SINGLEPASS   [  1]   ***   
       BASIS                IBASIS         dzp          [ 29]   ***   
       BREIT                IBREIT         OFF          [  0]   ***   
       BRUCK_CONV           IBRTOL          10D-  4             ***   
       BRUECKNER            IBRKNR             OFF      [  0]   ***   
       BUFFERSIZE           IBUFFS            600               ***   
       CACHE_RECS           ICHREC             10               ***   
       CALCLEVEL            ICLLVL           CCSD(T)    [ 22]   ***   
       CCORBOPT             ICCORB             OFF      [  0] x 0.01  
       CC_CONV              ICCCNV          10D- 12             ***   
       CC_EXPORDER          ICCEOR              5               ***   
       CC_EXTRAPOL          ICCEXT             DIIS     [  1]   ***   
       CC_MAXCYC            ICCCYC             50              cycles 
       CC_PROGRAM           ICCPRO         VCC          [  0]   ***   
       CHARGE               ICHRGE              0               ***   
       CHOLESKY             ICHOLE         OFF          [  0]   ***   
       CIS_CONV             ICISTL              5               ***   
       COMM_SIZE            IPSIZE            ***               ***   
       CONSTANT             ICONST         OLD          [  1]   ***   
       CONTINUUM            ICONTU         NONE         [  0]   ***   
       CONTRACTION          ICNTYP         UNCONTRACTED [  2]   ***   
       COORDINATES          ICOORD         INTERNAL     [  0]   ***   
       CPHF_CONVER          ICPHFT          10D- 16             ***   
       CPHF_MAXCYC          ICPHFC             64              cycles 
       CUBIC                ICUBIC         OFF          [  0]   ***   
       CURVILINEAR          ICURVY            OFF       [  0]   ***   
       DBOC                 IDBOC          OFF          [  0]   ***   
       DCT                  IDCT           OFF          [  0]   ***   
       DERIV_LEV            IDRLVL            FIRST     [  1]   ***   
       DIAG_MRCC            IEOMST          10D-  0             ***   
       DIFF_TYPE            IDIFTY         RELAXED      [  0]   ***   
       DIRECT               IDIRCT         OFF          [  0]   ***   
       DROPMO               IDRPMO      NONE         
       ECP                  IECP           OFF          [  0]   ***   
       EIGENVECTOR          IVEC                1               ***   
       EL_ANHARM            IELANH         OFF          [  0]   ***   
       EOMFOLLOW            IEOMSR         ENERGY       [  0]   ***   
       EOM_MRCC             IMRCCE         NEW          [  1]   ***   
       EOM_NONIT            EOMNON         OFF          [  0]   ***   
       EOM_NSING            IEOMSI          10D-  0             ***   
       EOM_NSTATES          IMRCCD         DAVIDSON     [  0]   ***   
       EOM_NTRIP            IEOMTR          10D-  0             ***   
       EOM_ORDER            IEXORD         ENERGY       [  0]   ***   
       ESTATE_CONV          IEXTOL          10D-  5             ***   
       ESTATE_DIAG          IEXDIG         ITERATIVE    [  0]   ***   
       ESTATE_LOCK          IESLOC         ON           [  1]   ***   
       ESTATE_MAXC          IEXMXC             20               ***   
       ESTATE_PROP          IEXPRP         OFF          [  0]   ***   
       EVAL_HESS            IRECAL              0            # of cyc.
       EXCITATION           IEXCIT              0               ***   
       EXCITE               IEXCIT         NONE         [  0]   ***   
       FCGRADNEW            IFCGNW         OFF          [  0]   ***   
       FC_FIELD             IFINFC              0             x 10-6  
       FD_CALTYPE           IFDCAL         GRADONLY     [  0]   ***   
       FD_PROJECT           IFDPRJ         OFF          [  1]   ***   
       FD_STEPSIZE          IDISFD              0            10-4 bohr
       FD_USEGROUP          IFDGRP         FULL         [  0]   ***   
       FILE_RECSIZ          IFLREC              4096           words  
       FINITE_PERT          IFIPER              0             x 10-6  
       FIXGEOM              IFIXGM         OFF          [  0]   ***   
       FOCK                 IFOCK          AO           [  1]   ***   
       FREQ_ALGORI          IVIALG         STANDARD     [  0]   ***   
       FROZEN_CORE          IFROCO         OFF          [  0]   ***   
       FROZEN_VIRT          IFROVI         OFF          [  0]   ***   
       GAMMA_ABCD           IGABCD         STORE        [  0]   ***   
       GAMMA_ABCI           IGABCI         STORE        [  0]   ***   
       GENBAS_1             IGNBS1              0               ***   
       GENBAS_2             IGNBS2              0               ***   
       GENBAS_3             IGNBS3              0               ***   
       GENBAS_4             IGNBS4              0               ***   
       GEO_CONV             ICONTL             10              H/bohr 
       GEO_MAXCYC           IOPTCY             50               ***   
       GEO_MAXSTEP          IMXSTP            300            millibohr
       GEO_METHOD           INR                NR       [  0]   ***   
       GIAO                 IGIAO          OFF          [  1]   ***   
       GIMIC                IGIMIC         OFF          [  0]   ***   
       GRID                 IGRID          OFF          [  0]   ***   
       GRID_ALGO            IGALGO         SERIAL       [  0]   ***   
       GUESS                IGUESS            MOREAD    [  0]   ***   
       HBAR                 IHBAR              OFF      [  0]   ***   
       HESS_TYPE            IHESTP         SCF          [  0]   ***   
       HF2_FILE             IHF2Fl         USE          [  1]   ***   
       HFSTABILITY          ISTABL         OFF          [  0]   ***   
       INCORE               INCORE             OFF      [  0]   ***   
       INPUT_MRCC           IMRCC          ON           [  1]   ***   
       INTEGRALS            INTTYP             VMOL     [  1]   ***   
       JODA_PRINT           IJPRNT              0               ***   
       LINDEP_TOL           ILINDP              8               ***   
       LINEQ_CONV           IZTACN          10D- 12           cycles  
       LINEQ_EXPOR          ILMAXD              5               ***   
       LINEQ_MAXCY          ILMAXC             50               ***   
       LINEQ_TYPE           ILTYPE         DIIS         [  1]   ***   
       LOCK_ORBOCC          ILOCOC             OFF      [  0]   ***   
       MEMORY_SIZE          IMEMSZ         100000000           words  
       MEM_UNIT             IMEMU          INTEGERWORDS [  0]   ***   
       MRCC                 IMRCCC         OFF          [  0]   ***   
       MULTIPLICTY          IMULTP              1               ***   
       NEGEVAL              IDIE             ABORT      [  0]   ***   
       NEWNORM              INEWNO         OFF          [  0]   ***   
       NON-HF               INONHF             OFF      [  0]   ***   
       NTOP_TAMP            ITOPT2             15               ***   
       NUC_MODEL            INUCMO         POINT        [  0]   ***   
       OCCUPATION           IOCCU   ESTIMATED BY SCF 
       OPEN-SHELL           IOPEN          SPIN-ORBITAL [  0]   ***   
       ORBITALS             IORBTP           STANDARD   [  0]   ***   
       PARALLEL             IPARAL         ON           [  1]   ***   
       PARA_INT             IPINTS         ON           [  1]   ***   
       PARA_PRINT           IPPRIN              0               ***   
       PERT_ORB             IPTORB         CANONICAL    [  1]   ***   
       POINTS               IGRDFD              0               ***   
       PRINT                IPRNT               0               ***   
       PROPS                IPROPS             OFF      [  0]   ***   
       PROP_INTEGR          IINTYP         INTERNAL     [  0]   ***   
       PSI                  IPSI           OFF          [  0]   ***   
       QUARTIC              IQUART         OFF          [  0]   ***   
       RAMAN_INT            IRAMIN         OFF          [  0]   ***   
       RAMAN_ORB            IRAMRE         UNRELAXED    [  0]   ***   
       RDO                  IRDOFM              ON      [  1]   ***   
       REFERENCE            IREFNC             RHF      [  0]   ***   
       RELATIVIST           IRELAT         X2C1E        [ 11]   ***   
       RELAX_DENS           IRDENS              ON      [  1]   ***   
       RESET_FLAGS          IRESET             OFF      [  0]   ***   
       RESTART_CC           ICCRES         OFF          [  0]   ***   
       ROT_EVEC             ROTVEC              0               ***   
       SAVE_INTS            ISVINT             OFF      [  0]   ***   
       SCALE_ON             ISTCRT              0               ***   
       SCF_CONV             ISCFCV          10D- 12             ***   
       SCF_DAMPING          IDAMP               0             x 10-3  
       SCF_EXPORDE          IRPPOR              6               ***   
       SCF_EXPSTAR          IRPPLS              8               ***   
       SCF_EXTRAPO          IRPP                ON      [  1]   ***   
       SCF_MAXCYC           ISCFCY            150              cycles 
       SCF_NOSTOP           ISCFST         OFF          [  0]   ***   
       SCF_PRINT            ISCFPR              0               ***   
       SD_FIELD             IFINSD              0             x 10-6  
       SEQUENCE             ISEQUE         OFF          [  0]   ***   
       SOPERT               IPERSO         OFF          [  0]   ***   
       SPHERICAL            IDFGHI             ON       [  1]   ***   
       SPINORBIT            ISOCAL         OFF          [  0]   ***   
       SPINROTATIO          ISRCON         OFF          [  0]   ***   
       SPIN_FLIP            ISPFLP         OFF          [  0]   ***   
       SPIN_ORBIT           ISPORB         OFF          [  0]   ***   
       SPIN_SCAL            ISCSMP         OFF          [  0]   ***   
       SUBGROUP             ISUBGP         DEFAULT      [  0]   ***   
       SUBGRPAXIS           ISBXYZ         X            [  0]   ***   
       SYMMETRY             ISYM             ON         [  0]   ***   
       SYM_CHECK            ISYMCK         OVERRIDE     [  1]   ***   
       T3_EXTRAPOL          IT3EXT         OFF          [  0]   ***   
       TAMP_SUM             IEVERY              5               ***   
       TESTSUITE            ITESTS         OFF          [  0]   ***   
       THERMOCH             ITHERM         OFF          [  0]   ***   
       TOL_CHOLESK          ITOLCH          10D-  4             ***   
       TRANGRAD             IRESRM         OFF          [  0]   ***   
       TRANS_INV            ITRAIN         USE          [  0]   ***   
       TREAT_PERT           ITREAT         SIMULTANEOUS [  0]   ***   
       UIJ_THRESHO          IUIJTH              1               ***   
       UNITS                IUNITS         ANGSTROM     [  0]   ***   
       UNOS                 IUNOS          OFF          [  0]   ***   
       UPDATE_HESS          IHUPDT         ON           [  1]   ***   
       VIBPHASE             ISETPH         STANDARD     [  0]   ***   
       VIBRATION            IVIB              NO        [  0]   ***   
       VIB_ALGORIT          IGEALG         STANDARD     [  0]   ***   
       VNATORB              IVNORB         OFF          [  0]   ***   
       VTRAN                IVTRAN         FULL/PARTIAL [  0]   ***   
       XFIELD               IXEFLD              0             x 10-6  
       XFORM_TOL            IXFTOL          10D- 11             ***   
       YFIELD               IYEFLD              0             x 10-6  
       ZFIELD               IZEFLD              0             x 10-6  
    -------------------------------------------------------------------
   3 entries found in Z-matrix 
   Job Title : Geometry optimization of H2O at CCSD(T) level (from the cfour web)              
   There are  2 unique internal coordinates.
   Of these,  2 will be optimized.
   User supplied Z-matrix: 
--------------------------------------------------------------------------------
       SYMBOL    BOND      LENGTH    ANGLE     ANGLE     DIHED     ANGLE
                  TO      (ANGST)    WRT      (DEG)      WRT      (DEG)
--------------------------------------------------------------------------------
        O    
        H          1         R    
        H          1         R          2        A    
                  *Initial values for internal coordinates* 
                      Name             Value
                        R               0.9580000000
                        A             104.5000000000
--------------------------------------------------------------------------------
  1  O          8    15.99491
  2  H          1     1.00783
  3  H          1     1.00783
 factor:   60.1997200000000     
   Rotational constants (in cm-1): 
          9.5117577156            14.5760005103            27.3769230540
   Rotational constants (in MHz): 
     285155.3624957671        436977.5632982104        820739.6204653939
********************************************************************************
   The full molecular point group is C2v .
   The largest Abelian subgroup of the full molecular point group is C2v .
   The computational point group is C2v .
********************************************************************************
--------------------------------------------------------------------------------
   Analysis of internal coordinates specified by Z-matrix 
--------------------------------------------------------------------------------
   *The nuclear repulsion energy is    9.187331653302879 a.u.
   *There are   2 degrees of freedom within the tot. symm. molecular subspace.
   *Z-matrix requests optimization of   2 coordinates.
   *The optimization is unconstrained and your Z-matrix is great.
--------------------------------------------------------------------------------
 ----------------------------------------------------------------
 Z-matrix   Atomic            Coordinates (in bohr)
  Symbol    Number           X              Y              Z
 ----------------------------------------------------------------
     O         8         0.00000000     0.00000000     0.12403889
     H         1         0.00000000    -1.43143120    -0.98429357
     H         1         0.00000000     1.43143120    -0.98429357
 ----------------------------------------------------------------
   Interatomic distance matrix (Angstroms) 
 
                 O             H             H    
                [ 1]        [ 2]        [ 3]
  O    [ 1]     0.00000
  H    [ 2]     0.95800     0.00000
  H    [ 3]     0.95800     1.51496     0.00000
   Rotational constants (in cm-1): 
          9.5117577156            27.3769230540            14.5760005103
   Rotational constants (in MHz): 
     285155.3624957672        820739.6204653946        436977.5632982106
  Uncontracted basis dzp        is used.
  Uncontracted basis dzp        is used.
  Uncontracted basis dzp        is used.
  Uncontracted basis dzp        is used.
  There are   39 basis functions.
  @CHECKOUT-I, Total execution time (CPU/WALL):        0.21/       0.24 seconds.
--executable xjoda finished with status     0 in        0.27 seconds (walltime).
 --invoking executable--
/lustre/nyx/ukt/milias/work/software/cfour/cfour_v2.00beta_64bit_linux_serial/bin/xvmol
 Serial version of molecule started
********************************************************************************
                    Input from MOL file
********************************************************************************
INTGRL        1    0    1    0    0    0    0    0    0                         
         *** CFOUR Program System (Release V0.1) ***                            
Geometry optimization of H2O at CCSD(T) level (from the cfour web)              
    2    2 X  Y       0.10E-08              0    0                              
   9999.00      3.00                                                            
          8.00000000    1    3    3    2    1                                   
O #1   0.000000000000000   0.000000000000000   0.124038886472225                
    5    5                                                                      
   6773.37470000000        1.00000000000000       0.000000000000000E+000        
  0.000000000000000E+000  0.000000000000000E+000  0.000000000000000E+000        
   1016.79700000000       0.000000000000000E+000   1.00000000000000             
  0.000000000000000E+000  0.000000000000000E+000  0.000000000000000E+000        
   231.267380000000       0.000000000000000E+000  0.000000000000000E+000        
   1.00000000000000       0.000000000000000E+000  0.000000000000000E+000        
   65.0084540000000       0.000000000000000E+000  0.000000000000000E+000        
  0.000000000000000E+000   1.00000000000000       0.000000000000000E+000        
   20.4998080000000       0.000000000000000E+000  0.000000000000000E+000        
  0.000000000000000E+000  0.000000000000000E+000   1.00000000000000             
    2    2                                                                      
   6.71606640000000        1.00000000000000       0.000000000000000E+000        
   1.14715720000000       0.000000000000000E+000   1.00000000000000             
    1    1                                                                      
  0.334232500000000        1.00000000000000                                     
    3    3                                                                      
   17.6942640000000        1.00000000000000       0.000000000000000E+000        
  0.000000000000000E+000                                                        
   3.85360270000000       0.000000000000000E+000   1.00000000000000             
  0.000000000000000E+000                                                        
   1.04674650000000       0.000000000000000E+000  0.000000000000000E+000        
   1.00000000000000                                                             
    1    1                                                                      
  0.275860400000000        1.00000000000000                                     
    1    1                                                                      
   1.20000000000000        1.00000000000000                                     
          1.00000000    1    2    1    1                                        
H #2   0.000000000000000  -1.431431200720141  -0.984293568339221                
    4    4                                                                      
   13.0107010000000        1.00000000000000       0.000000000000000E+000        
  0.000000000000000E+000  0.000000000000000E+000                                
   1.96225720000000       0.000000000000000E+000   1.00000000000000             
  0.000000000000000E+000  0.000000000000000E+000                                
  0.444538000000000       0.000000000000000E+000  0.000000000000000E+000        
   1.00000000000000       0.000000000000000E+000                                
  0.121949600000000       0.000000000000000E+000  0.000000000000000E+000        
  0.000000000000000E+000   1.00000000000000                                     
    1    1                                                                      
  0.800000000000000        1.00000000000000                                     
FINISH                                                                          
 
********************************************************************************
 One- and two-electron integrals over symmetry-adapted AOs are calculated.

  Spherical harmonics are used.
  
  Integrals less than  0.10E-13 are neglected.

  Nuclear repulsion energy :    9.1873316533 a.u.
  required memory for a1 array                5003078  words 
  required memory for a2 array                2013441  words 
 @GETMEM-I,  Allocated      68 MB of main memory.
  @MOLECU-I, One electron integrals (CPU/WALL):        0.01/       0.01 seconds.
  @TWOEL-I,      19852 integrals of symmetry type  I I I I
  @TWOEL-I,      31145 integrals of symmetry type  I J I J
  @TWOEL-I,      18409 integrals of symmetry type  I I J J
  @TWOEL-I,       7362 integrals of symmetry type  I J K L
  @TWOEL-I, Total number of 2-e integrals      76768.
  @MOLECU-I, Two electron integrals (CPU/WALL):        0.82/       0.07 seconds.
  @CHECKOUT-I, Total execution time (CPU/WALL):        0.83/       0.08 seconds.
--executable xvmol finished with status     0 in        0.10 seconds (walltime).
 --invoking executable--
/lustre/nyx/ukt/milias/work/software/cfour/cfour_v2.00beta_64bit_linux_serial/bin/xvmol2ja
 @GETMEM-I,  Allocated     762 MB of main memory.
  @CHECKOUT-I, Total execution time (CPU/WALL):        0.04/       0.01 seconds.
--executable xvmol2ja finished with status     0 in        0.02 seconds (walltime).
  a 
 --invoking executable--
/lustre/nyx/ukt/milias/work/software/cfour/cfour_v2.00beta_64bit_linux_serial/bin/xvdint
 @GETMEM-I,  Allocated     762 MB of main memory.
 One- and two-electron integral derivatives are calculated
 for RHF-CC/MBPT gradients and dipole moments.
 Spherical gaussians are used.
 
      Evaluated one-electron integrals:   dipole integrals
  keyword missing for gradient integrals in sfree
  pVp integrals for spin-free DHF
  derivative pVp integrals for spin-free DHF
  Evaluation of 1e integral derivatives required    3.99 seconds.
  Evaluation of 2e integral derivatives required    0.00 seconds.


  @CHECKOUT-I, Total execution time (CPU/WALL):        3.99/       0.55 seconds.
--executable xvdint finished with status     0 in        0.62 seconds (walltime).
 --invoking executable--
/lustre/nyx/ukt/milias/work/software/cfour/cfour_v2.00beta_64bit_linux_serial/bin/xvpropx2c
 @GETMEM-I,  Allocated     762 MB of main memory.
 generating sfx2c-1e gradient integrals
 end generating sfx2c-1e gradient integrals
  @CHECKOUT-I, Total execution time (CPU/WALL):        1.64/       0.10 seconds.
--executable xvpropx2c finished with status     0 in        0.11 seconds (walltime).
 --invoking executable--
/lustre/nyx/ukt/milias/work/software/cfour/cfour_v2.00beta_64bit_linux_serial/bin/xvscf
  There are   39 functions in the AO basis.

  There are 4 irreducible representations.

       Irrep        # of functions
         1                 20
         2                  6
         3                 11
         4                  2


  Parameters for SCF calculation: 
        SCF reference function:  RHF  
  Maximum number of iterations:  150
     Full symmetry point group: C2v 
     Computational point group: C2v 
        Initial density matrix: MOREAD                 
     SCF convergence tolerance: 10**(-12)
  DIIS convergence acceleration:  ON
          Latest start for DIIS:   8
                     DIIS order:   6

  Memory information:      95903 words required.
  Fock matrices are constructed from AO integral file.
 @GETMEM-I,  Allocated       0 MB of main memory.
  Initialization and symmetry analysis required      0.004 seconds.

  @INITGES-I, Occupancies from core Hamiltonian:

          Alpha population by irrep:   3    1    1    0
           Beta population by irrep:   3    1    1    0


 total no. of electrons in initial guess :  0.000000000000000E+000
  --------------------------------------------------------------------
  Iteration         Total Energy            Largest Density Difference
  --------------------------------------------------------------------
       0             9.187331653302877              0.0000000000D+00
   current occupation vector 
     3  1  1  0
     3  1  1  0
       1           -60.403256163143951              0.2502273827D+01
   current occupation vector 
     3  1  1  0
     3  1  1  0
       2           -67.500137120865460              0.5951202656D+01
   current occupation vector 
     3  0  2  0
     3  0  2  0
       3           -72.121870242167915              0.5948533001D+01
   current occupation vector 
     3  1  1  0
     3  1  1  0
       4           -71.067352751170716              0.5415438873D+01
   current occupation vector 
     3  0  2  0
     3  0  2  0
       5           -73.493510280445236              0.5412340024D+01
   current occupation vector 
     3  1  1  0
     3  1  1  0
       6           -74.652228347770318              0.1692945785D+01
   current occupation vector 
     3  1  1  0
     3  1  1  0
       7           -75.460509708975053              0.1448957473D+01
   current occupation vector 
     3  1  1  0
     3  1  1  0
       8           -75.844651443206757              0.4910362172D+00
   current occupation vector 
     3  1  1  0
     3  1  1  0
       9           -76.074414921591583              0.2506899167D+00
   current occupation vector 
     3  1  1  0
     3  1  1  0
      10           -76.075224136933983              0.1052899657D-01
   current occupation vector 
     3  1  1  0
     3  1  1  0
      11           -76.075266853658391              0.2524308176D-02
   current occupation vector 
     3  1  1  0
     3  1  1  0
      12           -76.075269447611532              0.9429088582D-03
   current occupation vector 
     3  1  1  0
     3  1  1  0
      13           -76.075269540539807              0.1680103854D-03
   current occupation vector 
     3  1  1  0
     3  1  1  0
      14           -76.075269541475095              0.2323023515D-04
   current occupation vector 
     3  1  1  0
     3  1  1  0
      15           -76.075269541523667              0.6488149592D-05
   current occupation vector 
     3  1  1  0
     3  1  1  0
      16           -76.075269541525529              0.7972286097D-06
   current occupation vector 
     3  1  1  0
     3  1  1  0
      17           -76.075269541525643              0.2009401030D-06
   current occupation vector 
     3  1  1  0
     3  1  1  0
      18           -76.075269541525714              0.1137638034D-07
   current occupation vector 
     3  1  1  0
     3  1  1  0
      19           -76.075269541525699              0.3018292283D-08
   current occupation vector 
     3  1  1  0
     3  1  1  0
      20           -76.075269541525472              0.5868595609D-09
   current occupation vector 
     3  1  1  0
     3  1  1  0
      21           -76.075269541525515              0.1262068228D-09
   current occupation vector 
     3  1  1  0
     3  1  1  0
      22           -76.075269541525515              0.2407785082D-10
   current occupation vector 
     3  1  1  0
     3  1  1  0
      23           -76.075269541525387              0.5253353308D-11
   current occupation vector 
     3  1  1  0
     3  1  1  0
      24           -76.075269541525529              0.1144084827D-11
   current occupation vector 
     3  1  1  0
     3  1  1  0

  SCF has converged.

 Density matrix saved to file den.dat
 total electron number:   10.0000000000000     
     E(SCF)=       -76.075269541525401              0.7374101330D-12

  Eigenvector printing suppressed.

 @PUTMOS-I, Writing converged MOs to NEWMOS. 
 @PUTMOS-I, Symmetry   1 Full Blocks  5 Partial Blocksize   0
 @PUTMOS-I, Symmetry   2 Full Blocks  1 Partial Blocksize   2
 @PUTMOS-I, Symmetry   3 Full Blocks  2 Partial Blocksize   3
 @PUTMOS-I, Symmetry   4 Full Blocks  0 Partial Blocksize   2


 
  ORBITAL EIGENVALUES (ALPHA)  (1H = 27.2113838 eV)

       MO #        E(hartree)               E(eV)           FULLSYM    COMPSYM
       ----   --------------------   --------------------   -------   ---------
    1     1         -20.5573389599        -559.3936407459      A1        A1 (1)
    2     2          -1.3387827197         -36.4301304372      A1        A1 (1)
    3    27          -0.7000694678         -19.0498589889      B2        B2 (3)
    4     3          -0.5667757641         -15.4227528576      A1        A1 (1)
    5    21          -0.4935119430         -13.4291429010                   (2)
  +++++++++++++++++++++++++++++++++++++++++++++++++++++++++++++++++++++++++++++
    6     4           0.1891660666           5.1474704428      A1        A1 (1)
    7    28           0.2536938998           6.9033620812      B2        B2 (3)
    8    29           0.6687737760          18.1982599070      B2        B2 (3)
    9     5           0.7465056585          20.3134519974      A1        A1 (1)
   10     6           1.0817722881          29.4365209382      A1        A1 (1)
   11    22           1.1254432596          30.6248685051                   (2)
   12    30           1.2156939321          33.0807141948      B2        B2 (3)
   13     7           1.5474668774          42.1087151502      A1        A1 (1)
   14    38           1.5982441028          43.4904337173      B2        B2 (4)
   15    23           1.8084744575          49.2110925901       1         1 (2)
   16     8           1.9465961780          52.9695757404      A1        A1 (1)
   17    31           2.0360308299          55.4032163814      B2        B2 (3)
   18    32           2.4432796566          66.4850205152      B2        B2 (3)
   19     9           2.5646484823          69.7876342142      A1        A1 (1)
   20    10           3.2937018337          89.6261847845      A1        A1 (1)
   21    24           3.3294450833          90.5988080671       1         1 (2)
   22    39           3.3875360795          92.1795444614      B2        B2 (4)
   23    33           3.4098632765          92.7870983897      B2        B2 (3)
   24    11           3.5956304904          97.8420813484      A1        A1 (1)
   25    12           3.9396208939         107.2025362473      A1        A1 (1)
   26    34           4.2267262901         115.0150713811      B2        B2 (3)
   27    25           6.1312058156         166.8385947257                   (2)
   28    13           6.6341041466         180.5231542313      A1        A1 (1)
   29    35           6.9170472594         188.2224278725      B2        B2 (3)
   30    14          19.7880910200         538.4613398016      A1        A1 (1)
   31    15          22.2051343748         604.2324342390      A1        A1 (1)
   32    36          22.3603351036         608.4556608385      B2        B2 (3)
   33    26          33.4222651093         909.4660840083                   (2)
   34    16          33.6858347342         916.6381782364      A1        A1 (1)
   35    37          33.8557073737         921.2606478305      B2        B2 (3)
   36    17         106.7296315057        2904.2609678240      A1        A1 (1)
   37    18         452.8868288194       12323.6773258372      A1        A1 (1)
   38    19        1965.1755770155       53475.1468990336      A1        A1 (1)
   39    20        9869.8801166104      268573.0961063278      A1        A1 (1)


  VSCF finished.

  @CHECKOUT-I, Total execution time (CPU/WALL):        0.29/       0.06 seconds.
--executable xvscf finished with status     0 in        0.07 seconds (walltime).
 --invoking executable--
/lustre/nyx/ukt/milias/work/software/cfour/cfour_v2.00beta_64bit_linux_serial/bin/xvtran
 @GETMEM-I,  Allocated     762 MB of main memory.
  Full RHF integral transformation
  Transformation of IIII integrals :
  1 pass through the AO integral file was required.
       19852 AO integrals were read.
       24603 MO integrals were written to HF2.
  Transformation of IIJJ integrals :
  1 pass through the AO integral file was required.
       18409 AO integrals were read.
       20547 MO integrals were written to HF2.
  Transformation of IJIJ integrals :
  1 pass through the AO integral file was required.
       31145 AO integrals were read.
       34932 MO integrals were written to HF2.
  Transformation of IJKL integrals :
  1 pass through the AO integral file was required.
        7362 AO integrals were read.
        7920 MO integrals were written to HF2.
  Summary of active molecular orbitals: 
------------------------------------------------------------------------
 
  Index      Eigenvalue    Symmetry    Index      Eigenvalue    Symmetry
------------------------------------------------------------------------
     1       -20.5573390        1        21      1965.1755770        1
     2        -1.3387827        1        22      9869.8801166        1
     3        -0.5667758        1        23         1.1254433        2
     4        -0.4935119        2        24         1.8084745        2
     5        -0.7000695        3        25         3.3294451        2
     6         0.1891661        1        26         6.1312058        2
     7         0.7465057        1        27        33.4222651        2
     8         1.0817723        1        28         0.2536939        3
     9         1.5474669        1        29         0.6687738        3
    10         1.9465962        1        30         1.2156939        3
    11         2.5646485        1        31         2.0360308        3
    12         3.2937018        1        32         2.4432797        3
    13         3.5956305        1        33         3.4098633        3
    14         3.9396209        1        34         4.2267263        3
    15         6.6341041        1        35         6.9170473        3
    16        19.7880910        1        36        22.3603351        3
    17        22.2051344        1        37        33.8557074        3
    18        33.6858347        1        38         1.5982441        4
    19       106.7296315        1        39         3.3875361        4
    20       452.8868288        1
------------------------------------------------------------------------
  @CHECKOUT-I, Total execution time (CPU/WALL):        0.74/       0.06 seconds.
--executable xvtran finished with status     0 in        0.07 seconds (walltime).
 --invoking executable--
/lustre/nyx/ukt/milias/work/software/cfour/cfour_v2.00beta_64bit_linux_serial/bin/xintprc
 @GETMEM-I,  Allocated     762 MB of main memory.
  @GMOIAA-I, Processing MO integrals for spin case AA.
  @GMOIAA-I, Generation of integral list completed.
                      TYPE                NUMBER
                      ----               --------
                      PPPP                 51076
                      PPPH                 29070
                      PPHH                  4262
                      PHPH                  2747
                      PHHH                   798
                      HHHH                    49

                     TOTAL                 88002

  @FORMT2-I, Second-order MP correlation energies:
            ------------------------------------------------
            E(SCF)                  =    -76.075269541525 a.u.
            E2(AA)                  =     -0.029638989076 a.u.
            E2(AB)                  =     -0.197759209115 a.u.
            E2(TOT)                 =     -0.257037187268 a.u.
            Total MP2 energy        =    -76.332306728793 a.u.
            ------------------------------------------------
   Largest T2 amplitudes for spin case AB:
       _       _                 _       _                 _       _
   i   j   a   b             i   j   a   b             i   j   a   b
-----------------------------------------------------------------------------
[  4   4  23  23]-0.04452 [  3   3   8   8]-0.03571 [  4   3  23   8]-0.03027
[  3   4   8  23]-0.03027 [  5   5  29  29]-0.02623 [  5   5  28  28]-0.02572
[  5   4  30  23]-0.02403 [  4   5  23  30]-0.02403 [  5   5  30  30]-0.02354
[  5   5   7   7]-0.02267 [  5   4  28  23]-0.02264 [  4   5  23  28]-0.02264
[  3   3  29  29]-0.02163 [  5   3  30   8]-0.02111 [  3   5   8  30]-0.02111
-----------------------------------------------------------------------------
   Norm of T2AB vector (     8354 symmetry allowed elements):  0.1959826356.
-----------------------------------------------------------------------------
  @CHECKOUT-I, Total execution time (CPU/WALL):        0.66/       0.06 seconds.
--executable xintprc finished with status     0 in        0.07 seconds (walltime).
  calling xvcc 
 --invoking executable--
/lustre/nyx/ukt/milias/work/software/cfour/cfour_v2.00beta_64bit_linux_serial/bin/xvcc
 @GETMEM-I,  Allocated     762 MB of main memory.
   CCSD(T) energy will be calculated.
   The total correlation energy is -0.257037187268 a.u.
   The total correlation energy is -0.260659301474 a.u.
  Convergence information after     1 iterations: 
  Largest element of residual vector :  0.50423261E-02.
  Largest element of DIIS residual   :  0.50423261E-02.
   The total correlation energy is -0.264654296966 a.u.
  Convergence information after     2 iterations: 
  Largest element of residual vector : -0.17293182E-02.
  Largest element of DIIS residual   : -0.19436956E-02.
   The total correlation energy is -0.265290724327 a.u.
  Convergence information after     3 iterations: 
  Largest element of residual vector :  0.68768581E-03.
  Largest element of DIIS residual   :  0.48169719E-03.
   The total correlation energy is -0.265656655495 a.u.
  Convergence information after     4 iterations: 
  Largest element of residual vector :  0.20282627E-03.
  Largest element of DIIS residual   :  0.13176230E-03.
   The total correlation energy is -0.265671189012 a.u.
  Convergence information after     5 iterations: 
  Largest element of residual vector :  0.95514084E-04.
  Largest element of DIIS residual   :  0.68057063E-04.
   The total correlation energy is -0.265672240412 a.u.
  Convergence information after     6 iterations: 
  Largest element of residual vector :  0.38163150E-04.
  Largest element of DIIS residual   :  0.20899261E-04.
   The total correlation energy is -0.265672085160 a.u.
  Convergence information after     7 iterations: 
  Largest element of residual vector :  0.13388137E-04.
  Largest element of DIIS residual   :  0.41775367E-05.
   The total correlation energy is -0.265672104614 a.u.
  Convergence information after     8 iterations: 
  Largest element of residual vector :  0.22805022E-05.
  Largest element of DIIS residual   :  0.69063930E-06.
   The total correlation energy is -0.265672112753 a.u.
  Convergence information after     9 iterations: 
  Largest element of residual vector :  0.33047176E-06.
  Largest element of DIIS residual   : -0.15401304E-06.
   The total correlation energy is -0.265672083937 a.u.
  Convergence information after    10 iterations: 
  Largest element of residual vector :  0.71834271E-07.
  Largest element of DIIS residual   :  0.42814486E-07.
   The total correlation energy is -0.265672083368 a.u.
  Convergence information after    11 iterations: 
  Largest element of residual vector : -0.10303984E-07.
  Largest element of DIIS residual   : -0.99164471E-08.
   The total correlation energy is -0.265672082000 a.u.
  Convergence information after    12 iterations: 
  Largest element of residual vector :  0.31478401E-08.
  Largest element of DIIS residual   :  0.22527900E-08.
   The total correlation energy is -0.265672081870 a.u.
  Convergence information after    13 iterations: 
  Largest element of residual vector :  0.91730985E-09.
  Largest element of DIIS residual   :  0.74176179E-09.
   The total correlation energy is -0.265672081862 a.u.
  Convergence information after    14 iterations: 
  Largest element of residual vector :  0.63609669E-09.
  Largest element of DIIS residual   :  0.43088235E-09.
   The total correlation energy is -0.265672081852 a.u.
  Convergence information after    15 iterations: 
  Largest element of residual vector :  0.24876498E-09.
  Largest element of DIIS residual   :  0.95306603E-10.
   The total correlation energy is -0.265672081858 a.u.
  Convergence information after    16 iterations: 
  Largest element of residual vector :  0.59176333E-10.
  Largest element of DIIS residual   : -0.12708139E-10.
   The total correlation energy is -0.265672081860 a.u.
  Convergence information after    17 iterations: 
  Largest element of residual vector :  0.11564040E-10.
  Largest element of DIIS residual   :  0.37222056E-11.
   The total correlation energy is -0.265672081861 a.u.
  Convergence information after    18 iterations: 
  Largest element of residual vector :  0.10866768E-11.
  Largest element of DIIS residual   : -0.11354432E-11.
   The total correlation energy is -0.265672081861 a.u.
  Convergence information after    19 iterations: 
  Largest element of residual vector :  0.41457289E-12.
  Largest element of DIIS residual   :  0.24825157E-12.
  Amplitude equations converged in    19iterations.
   The total correlation energy is -0.265672081861 a.u.
   The CC iterations have converged.

   Largest T1 amplitudes for spin case AA:
   i       a                 i       a                 i       a    
-----------------------------------------------------------------------------
[  3       6    ] 0.00641 [  5      32    ] 0.00581 [  5      30    ] 0.00531
[  5      28    ]-0.00465 [  2       8    ]-0.00416 [  3      11    ]-0.00413
[  4      26    ] 0.00348 [  5      35    ] 0.00342 [  3      15    ] 0.00327
[  2       6    ]-0.00297 [  3       7    ] 0.00284 [  5      33    ] 0.00281
[  3       9    ] 0.00256 [  4      24    ]-0.00254 [  2      11    ] 0.00241
-----------------------------------------------------------------------------
   Norm of T1AA vector (       66 symmetry allowed elements):  0.0161790663.
-----------------------------------------------------------------------------
   Largest T2 amplitudes for spin case AB:
       _       _                 _       _                 _       _
   i   j   a   b             i   j   a   b             i   j   a   b
-----------------------------------------------------------------------------
[  4   4  23  23]-0.04839 [  3   3   8   8]-0.03851 [  5   5  29  29]-0.03121
[  4   3  23   8]-0.02938 [  3   4   8  23]-0.02938 [  5   5  28  28]-0.02831
[  5   5   7   7]-0.02690 [  3   3  29  29]-0.02530 [  5   5  30  30]-0.02468
[  5   4  30  23]-0.02345 [  4   5  23  30]-0.02345 [  5   5  30  28]-0.02148
[  5   5  28  30]-0.02148 [  5   4  28  23]-0.02129 [  4   5  23  28]-0.02129
-----------------------------------------------------------------------------
   Norm of T2AB vector (     8354 symmetry allowed elements):  0.2164269508.
-----------------------------------------------------------------------------
       Summary of iterative solution of CC equations 
      -----------------------------------------------------------
                       Correlation           Total
       Iteration         Energy              Energy
      -----------------------------------------------------------
            0        -0.257037187268     -76.332306728793  DIIS 
            1        -0.260659301474     -76.335928842999  DIIS 
            2        -0.264654296966     -76.339923838491  DIIS 
            3        -0.265290724327     -76.340560265852  DIIS 
            4        -0.265656655495     -76.340926197021  DIIS 
            5        -0.265671189012     -76.340940730537  DIIS 
            6        -0.265672240412     -76.340941781937  DIIS 
            7        -0.265672085160     -76.340941626686  DIIS 
            8        -0.265672104614     -76.340941646140  DIIS 
            9        -0.265672112753     -76.340941654278  DIIS 
           10        -0.265672083937     -76.340941625463  DIIS 
           11        -0.265672083368     -76.340941624894  DIIS 
           12        -0.265672082000     -76.340941623525  DIIS 
           13        -0.265672081870     -76.340941623395  DIIS 
           14        -0.265672081862     -76.340941623387  DIIS 
           15        -0.265672081852     -76.340941623377  DIIS 
           16        -0.265672081858     -76.340941623383  DIIS 
           17        -0.265672081860     -76.340941623385  DIIS 
           18        -0.265672081861     -76.340941623386  DIIS 
           19        -0.265672081861     -76.340941623386  DIIS 
      -----------------------------------------------------------
      A miracle has come to pass. The CC iterations have converged.
        E(CCSD)           =     -76.340941623386
        E(CCSD + T(CCSD)) =     -76.345801979615
        E(CCSD(T))        =     -76.345680992057
  @CHECKOUT-I, Total execution time (CPU/WALL):        5.60/       0.29 seconds.
--executable xvcc finished with status     0 in        0.30 seconds (walltime).
 --invoking executable--
/lustre/nyx/ukt/milias/work/software/cfour/cfour_v2.00beta_64bit_linux_serial/bin/xlambda
 @GETMEM-I,  Allocated     762 MB of main memory.
  The Lambda equations are solved for CCSD(T).
  Initial lambda amplitudes: 
  Convergence information after     1 iterations: 
  Largest element of residual vector : -0.28439363E-02.
  Largest element of DIIS residual   : -0.28439363E-02.
  Convergence information after     2 iterations: 
  Largest element of residual vector : -0.64385834E-03.
  Largest element of DIIS residual   : -0.58512131E-03.
  Convergence information after     3 iterations: 
  Largest element of residual vector : -0.26410746E-03.
  Largest element of DIIS residual   :  0.11305383E-03.
  Convergence information after     4 iterations: 
  Largest element of residual vector :  0.10451882E-03.
  Largest element of DIIS residual   :  0.77714453E-04.
  Convergence information after     5 iterations: 
  Largest element of residual vector :  0.46553019E-04.
  Largest element of DIIS residual   :  0.21867072E-04.
  Convergence information after     6 iterations: 
  Largest element of residual vector :  0.16002024E-04.
  Largest element of DIIS residual   :  0.51154881E-05.
  Convergence information after     7 iterations: 
  Largest element of residual vector :  0.39397299E-05.
  Largest element of DIIS residual   :  0.11487748E-05.
  Convergence information after     8 iterations: 
  Largest element of residual vector :  0.50991984E-06.
  Largest element of DIIS residual   : -0.17829398E-06.
  Convergence information after     9 iterations: 
  Largest element of residual vector :  0.81569314E-07.
  Largest element of DIIS residual   : -0.53291952E-07.
  Convergence information after    10 iterations: 
  Largest element of residual vector : -0.25315353E-07.
  Largest element of DIIS residual   :  0.14086170E-07.
  Convergence information after    11 iterations: 
  Largest element of residual vector :  0.85910563E-08.
  Largest element of DIIS residual   :  0.68139645E-08.
  Convergence information after    12 iterations: 
  Largest element of residual vector :  0.46130217E-08.
  Largest element of DIIS residual   :  0.33687061E-08.
  Convergence information after    13 iterations: 
  Largest element of residual vector :  0.22052264E-08.
  Largest element of DIIS residual   :  0.15136780E-08.
  Convergence information after    14 iterations: 
  Largest element of residual vector :  0.10196837E-08.
  Largest element of DIIS residual   :  0.30162027E-09.
  Convergence information after    15 iterations: 
  Largest element of residual vector :  0.19817819E-09.
  Largest element of DIIS residual   :  0.73463861E-10.
  Convergence information after    16 iterations: 
  Largest element of residual vector :  0.45854085E-10.
  Largest element of DIIS residual   :  0.26332897E-10.
  Convergence information after    17 iterations: 
  Largest element of residual vector :  0.13543360E-10.
  Largest element of DIIS residual   : -0.56624897E-11.
  Convergence information after    18 iterations: 
  Largest element of residual vector : -0.31253663E-11.
  Largest element of DIIS residual   :  0.22726678E-11.
  Convergence information after    19 iterations: 
  Largest element of residual vector :  0.13013592E-11.
  Largest element of DIIS residual   :  0.91518971E-12.
  Amplitude equations converged in    19 iterations.
      The lambda equations have converged.
  @CHECKOUT-I, Total execution time (CPU/WALL):        3.23/       0.17 seconds.
--executable xlambda finished with status     0 in        0.18 seconds (walltime).
 --invoking executable--
/lustre/nyx/ukt/milias/work/software/cfour/cfour_v2.00beta_64bit_linux_serial/bin/xdens
 @GETMEM-I,  Allocated     762 MB of main memory.
  CCSD(T) density and intermediates are calculated.
  The perturbed orbitals are chosen canonical.
  The iterative expansion of D(ai) converged after  16 iterations.
  ----------------------------------------------------------------------
                 Natural orbital occupation numbers
  ----------------------------------------------------------------------
  1.99908  1.98338  1.97166  1.96493  1.96213  0.02801  0.02587  0.01739
  0.01191  0.00633  0.00598  0.00521  0.00468  0.00446  0.00132  0.00129
  0.00096  0.00095  0.00077  0.00061  0.00057  0.00054  0.00052  0.00039
  0.00024  0.00023  0.00013  0.00011  0.00009  0.00008  0.00006  0.00006
  0.00004  0.00001  0.00000  0.00000  0.00000  0.00000  0.00000
  Trace of density matrix :  10.0000000000.
  ----------------------------------------------------------------------
  Density calculation successfully completed.
  @CHECKOUT-I, Total execution time (CPU/WALL):        0.69/       0.05 seconds.
--executable xdens finished with status     0 in        0.06 seconds (walltime).
 --invoking executable--
/lustre/nyx/ukt/milias/work/software/cfour/cfour_v2.00beta_64bit_linux_serial/bin/xanti
 @GETMEM-I,  Allocated     762 MB of main memory.
 CCSD(T) MO gammas will be sorted to Mulliken order.
  @CHECKOUT-I, Total execution time (CPU/WALL):        0.73/       0.05 seconds.
--executable xanti finished with status     0 in        0.06 seconds (walltime).
 --invoking executable--
/lustre/nyx/ukt/milias/work/software/cfour/cfour_v2.00beta_64bit_linux_serial/bin/xbcktrn
 @GETMEM-I,  Allocated     762 MB of main memory.
  @CHECKOUT-I, Total execution time (CPU/WALL):        0.02/       0.02 seconds.
--executable xbcktrn finished with status     0 in        0.03 seconds (walltime).
 --invoking executable--
/lustre/nyx/ukt/milias/work/software/cfour/cfour_v2.00beta_64bit_linux_serial/bin/xvdint
 @GETMEM-I,  Allocated     762 MB of main memory.
 One- and two-electron integral derivatives are calculated
 for RHF-CC/MBPT gradients and dipole moments.
 Spherical gaussians are used.

                     Kinetic energy integral gradient
                     --------------------------------

                         O #1 z    -0.8268311582
                         H #2 y     1.0925498840
                         H #2 z     0.8268311582


 O #1       0.0000000000            0.0000000000           -0.8268311582
 H #2 1     0.0000000000            0.5462749420            0.4134155791
 H #2 2     0.0000000000           -0.5462749420            0.4134155791



                   Nuclear attraction integral gradient
                   ------------------------------------

                         O #1 z     7.8974957238
                         H #2 y   -10.3827251292
                         H #2 z    -7.8974957238


 O #1       0.0000000000            0.0000000000            7.8974957238
 H #2 1     0.0000000000           -5.1913625646           -3.9487478619
 H #2 2     0.0000000000            5.1913625646           -3.9487478619



                      Reorthonormalization gradient
                      -----------------------------

                         O #1 z    -0.4127194043
                         H #2 y     0.4795846595
                         H #2 z     0.4127194043


 O #1       0.0000000000            0.0000000000           -0.4127194043
 H #2 1     0.0000000000            0.2397923298            0.2063597022
 H #2 2     0.0000000000           -0.2397923298            0.2063597022


  Evaluation of 1e integral derivatives required    0.30 seconds.
  Evaluation of 2el integral derivatives

                      Two-electron integral gradient
                      ------------------------------

                         O #1 z    -3.6725659671
                         H #2 y     4.7028454191
                         H #2 z     3.6725659671


 O #1       0.0000000000            0.0000000000           -3.6725659671
 H #2 1     0.0000000000            2.3514227096            1.8362829835
 H #2 2     0.0000000000           -2.3514227096            1.8362829835


  Evaluation of 2e integral derivatives required    2.44 seconds.

                            Molecular gradient
                            ------------------

                         O #1 z    -0.0032725262
                         H #2 y    -0.0038351815
                         H #2 z     0.0032725262


 O #1       0.0000000000            0.0000000000           -0.0032725262
 H #2 1     0.0000000000           -0.0019175908            0.0016362631
 H #2 2     0.0000000000            0.0019175908            0.0016362631


  Molecular gradient norm 0.601E-02

                           Total dipole moment
                           -------------------

                               au             Debye

                    z     -0.79389444     -2.01787874

  Conversion factor used: 1 a.u. =   2.54174691 Debye 


  @CHECKOUT-I, Total execution time (CPU/WALL):        2.75/       0.21 seconds.
--executable xvdint finished with status     0 in        0.22 seconds (walltime).
 --invoking executable--
/lustre/nyx/ukt/milias/work/software/cfour/cfour_v2.00beta_64bit_linux_serial/bin/xjoda
   JODA beginning optimization cycle #  1.
 OriVec is   0.000000000000000E+000  -1.00000000000000     
  3.102413931082717E-016                    -2
  igrd and ihes are                      0                     0
  fetching hessian                     81
  iavhes is                      0
   Internal coordinate forces and energy gradients (atomic units): 
           R       dV/dR             R       dV/dR             R       dV/dR
 [R    ]  1.81036  0.0005145 [R    ]  1.81036  0.0005145 [A    ]  1.82387  0.0044675
                     0                     0                     0 ****
   Optimization cycle  1.  Updating structure with Newton-Raphson step.
  @EFOL-I, Current internal coordinate Hessian written to FCMINT.
   There are   2 independent internal coordinates which will be optimized.
   Hessian matrix in totally symmetric symmetry coordinates: 
              R         A    
  R          1.000000  0.000000
  A          0.000000  0.250000
   The eigenvectors of the Hessian matrix: 
                   1         2
  R          0.000000  1.000000
  A          1.000000  0.000000
   The eigenvalues of the Hessian matrix: 
     0.25000    1.00000
   Gradients along Hessian eigenvectors: 
     0.00447    0.00073
   There are  0 negative eigenvalues.
   Summary of Optimization Cycle: 
   The maximum unscaled step is:    0.01788.
   Scale factor set to:  1.00000.
   Forces are in hartree/bohr and hartree/radian.
   Parameter values are in Angstroms and degrees.
--------------------------------------------------------------------------
  Parameter     dV/dR           Step          Rold            Rnew
--------------------------------------------------------------------------
    R       0.0005144705   -0.0002722460    0.9580000000    0.9577277540
    A       0.0044675261   -1.0238815641  104.5000000000  103.4761184359
--------------------------------------------------------------------------
  Minimum force:  0.000514470 / RMS force:  0.003179895
 
********************************************************************************
*                          Current ZMATtemp file                               *
********************************************************************************
Geometry optimization of H2O at CCSD(T) level (from the cfour web)              
O                                                                               
H 1 R*                                                                          
H 1 R* 2 A*                                                                     
                                                                                
R    =        0.957727753995352                                                 
A    =      103.476118435922757                                                 
                                                                                
*ACES2(CALC=CCSD(T),BASIS=dzp                                                   
CONTRACTION=UNCONTRACTED                                                        
RELATIVISTIC=X2C1E                                                              
GEO_CONV=10                                                                     
CC_CONV=12                                                                      
LINEQ_CONV=12                                                                   
SCF_CONV=12)                                                                    
                                                                                
********************************************************************************
 Updating structure...
 factor:   60.1997200000000     
   Rotational constants (in cm-1): 
          9.5268147457            14.7893839686            26.7731815592
   Rotational constants (in MHz): 
     285606.7609656949        443374.6393408812        802639.9032592860
 ----------------------------------------------------------------
 Z-matrix   Atomic            Coordinates (in bohr)
  Symbol    Number           X              Y              Z
 ----------------------------------------------------------------
     O         8         0.00000000     0.00000000     0.12542964
     H         1         0.00000000    -1.42106723    -0.99532972
     H         1         0.00000000     1.42106723    -0.99532972
 ----------------------------------------------------------------
   Interatomic distance matrix (Angstroms) 
 
                 O             H             H    
                [ 1]        [ 2]        [ 3]
  O    [ 1]     0.00000
  H    [ 2]     0.95773     0.00000
  H    [ 3]     0.95773     1.50399     0.00000
   Rotational constants (in cm-1): 
          9.5268147457            26.7731815592            14.7893839686
   Rotational constants (in MHz): 
     285606.7609656945        802639.9032592847        443374.6393408804
  Uncontracted basis dzp        is used.
  Uncontracted basis dzp        is used.
  Uncontracted basis dzp        is used.
  Uncontracted basis dzp        is used.
  There are   39 basis functions.
  @CHECKOUT-I, Total execution time (CPU/WALL):        0.01/       0.02 seconds.
--executable xjoda finished with status     0 in        0.03 seconds (walltime).
 --invoking executable--
/lustre/nyx/ukt/milias/work/software/cfour/cfour_v2.00beta_64bit_linux_serial/bin/xvmol
 Serial version of molecule started
********************************************************************************
                    Input from MOL file
********************************************************************************
INTGRL        1    0    1    0    0    0    0    0    0                         
         *** CFOUR Program System (Release V0.1) ***                            
Geometry optimization of H2O at CCSD(T) level (from the cfour web)              
    2    2 X  Y       0.10E-08              0    0                              
   9999.00      3.00                                                            
          8.00000000    1    3    3    2    1                                   
O #1   0.000000000000000   0.000000000000000   0.125429642637106                
    5    5                                                                      
   6773.37470000000        1.00000000000000       0.000000000000000E+000        
  0.000000000000000E+000  0.000000000000000E+000  0.000000000000000E+000        
   1016.79700000000       0.000000000000000E+000   1.00000000000000             
  0.000000000000000E+000  0.000000000000000E+000  0.000000000000000E+000        
   231.267380000000       0.000000000000000E+000  0.000000000000000E+000        
   1.00000000000000       0.000000000000000E+000  0.000000000000000E+000        
   65.0084540000000       0.000000000000000E+000  0.000000000000000E+000        
  0.000000000000000E+000   1.00000000000000       0.000000000000000E+000        
   20.4998080000000       0.000000000000000E+000  0.000000000000000E+000        
  0.000000000000000E+000  0.000000000000000E+000   1.00000000000000             
    2    2                                                                      
   6.71606640000000        1.00000000000000       0.000000000000000E+000        
   1.14715720000000       0.000000000000000E+000   1.00000000000000             
    1    1                                                                      
  0.334232500000000        1.00000000000000                                     
    3    3                                                                      
   17.6942640000000        1.00000000000000       0.000000000000000E+000        
  0.000000000000000E+000                                                        
   3.85360270000000       0.000000000000000E+000   1.00000000000000             
  0.000000000000000E+000                                                        
   1.04674650000000       0.000000000000000E+000  0.000000000000000E+000        
   1.00000000000000                                                             
    1    1                                                                      
  0.275860400000000        1.00000000000000                                     
    1    1                                                                      
   1.20000000000000        1.00000000000000                                     
          1.00000000    1    2    1    1                                        
H #2   0.000000000000000  -1.421067229233716  -0.995329723106112                
    4    4                                                                      
   13.0107010000000        1.00000000000000       0.000000000000000E+000        
  0.000000000000000E+000  0.000000000000000E+000                                
   1.96225720000000       0.000000000000000E+000   1.00000000000000             
  0.000000000000000E+000  0.000000000000000E+000                                
  0.444538000000000       0.000000000000000E+000  0.000000000000000E+000        
   1.00000000000000       0.000000000000000E+000                                
  0.121949600000000       0.000000000000000E+000  0.000000000000000E+000        
  0.000000000000000E+000   1.00000000000000                                     
    1    1                                                                      
  0.800000000000000        1.00000000000000                                     
FINISH                                                                          
 
********************************************************************************
 One- and two-electron integrals over symmetry-adapted AOs are calculated.

  Spherical harmonics are used.
  
  Integrals less than  0.10E-13 are neglected.

  Nuclear repulsion energy :    9.1923914552 a.u.
  required memory for a1 array                5003078  words 
  required memory for a2 array                2013441  words 
 @GETMEM-I,  Allocated      68 MB of main memory.
  @MOLECU-I, One electron integrals (CPU/WALL):        0.01/       0.01 seconds.
  @TWOEL-I,      19854 integrals of symmetry type  I I I I
  @TWOEL-I,      31146 integrals of symmetry type  I J I J
  @TWOEL-I,      18409 integrals of symmetry type  I I J J
  @TWOEL-I,       7362 integrals of symmetry type  I J K L
  @TWOEL-I, Total number of 2-e integrals      76771.
  @MOLECU-I, Two electron integrals (CPU/WALL):        0.96/       0.06 seconds.
  @CHECKOUT-I, Total execution time (CPU/WALL):        0.98/       0.08 seconds.
--executable xvmol finished with status     0 in        0.09 seconds (walltime).
 --invoking executable--
/lustre/nyx/ukt/milias/work/software/cfour/cfour_v2.00beta_64bit_linux_serial/bin/xvmol2ja
 @GETMEM-I,  Allocated     762 MB of main memory.
  @CHECKOUT-I, Total execution time (CPU/WALL):        0.04/       0.01 seconds.
--executable xvmol2ja finished with status     0 in        0.02 seconds (walltime).
  a 
 --invoking executable--
/lustre/nyx/ukt/milias/work/software/cfour/cfour_v2.00beta_64bit_linux_serial/bin/xvdint
 @GETMEM-I,  Allocated     762 MB of main memory.
 One- and two-electron integral derivatives are calculated
 for RHF-CC/MBPT gradients and dipole moments.
 Spherical gaussians are used.
 
      Evaluated one-electron integrals:   dipole integrals
  keyword missing for gradient integrals in sfree
  pVp integrals for spin-free DHF
  derivative pVp integrals for spin-free DHF
  Evaluation of 1e integral derivatives required    4.34 seconds.
  Evaluation of 2e integral derivatives required    0.00 seconds.


  @CHECKOUT-I, Total execution time (CPU/WALL):        4.34/       0.61 seconds.
--executable xvdint finished with status     0 in        0.69 seconds (walltime).
 --invoking executable--
/lustre/nyx/ukt/milias/work/software/cfour/cfour_v2.00beta_64bit_linux_serial/bin/xvpropx2c
 @GETMEM-I,  Allocated     762 MB of main memory.
 generating sfx2c-1e gradient integrals
 end generating sfx2c-1e gradient integrals
  @CHECKOUT-I, Total execution time (CPU/WALL):        1.24/       0.07 seconds.
--executable xvpropx2c finished with status     0 in        0.09 seconds (walltime).
 --invoking executable--
/lustre/nyx/ukt/milias/work/software/cfour/cfour_v2.00beta_64bit_linux_serial/bin/xvscf
  There are   39 functions in the AO basis.

  There are 4 irreducible representations.

       Irrep        # of functions
         1                 20
         2                  6
         3                 11
         4                  2


  Parameters for SCF calculation: 
        SCF reference function:  RHF  
  Maximum number of iterations:  150
     Full symmetry point group: C2v 
     Computational point group: C2v 
        Initial density matrix: MOREAD                 
     SCF convergence tolerance: 10**(-12)
  DIIS convergence acceleration:  ON
          Latest start for DIIS:   8
                     DIIS order:   6

     Alpha population by irrep:   3    1    1    0
      Beta population by irrep:   3    1    1    0


  Memory information:      95903 words required.
  Fock matrices are constructed from AO integral file.
 @GETMEM-I,  Allocated       0 MB of main memory.
  Initialization and symmetry analysis required      0.000 seconds.

 total no. of electrons in initial guess :  0.000000000000000E+000
  --------------------------------------------------------------------
  Iteration         Total Energy            Largest Density Difference
  --------------------------------------------------------------------
       0           -76.074983323790647              0.0000000000D+00
   current occupation vector 
     3  1  1  0
     3  1  1  0
       1           -76.075233255843983              0.3571201100D-02
   current occupation vector 
     3  1  1  0
     3  1  1  0
       2           -76.075234083756428              0.5861635914D-03
   current occupation vector 
     3  1  1  0
     3  1  1  0
       3           -76.075234212525487              0.3080170788D-03
   current occupation vector 
     3  1  1  0
     3  1  1  0
       4           -76.075234237278920              0.6813621777D-04
   current occupation vector 
     3  1  1  0
     3  1  1  0
       5           -76.075234239635392              0.3631167712D-04
   current occupation vector 
     3  1  1  0
     3  1  1  0
       6           -76.075234239672653              0.2904196698D-05
   current occupation vector 
     3  1  1  0
     3  1  1  0
       7           -76.075234239673179              0.5952940826D-06
   current occupation vector 
     3  1  1  0
     3  1  1  0
       8           -76.075234239673222              0.4961926869D-07
   current occupation vector 
     3  1  1  0
     3  1  1  0
       9           -76.075234239673279              0.8153995035D-08
   current occupation vector 
     3  1  1  0
     3  1  1  0
      10           -76.075234239673193              0.2614660821D-08
   current occupation vector 
     3  1  1  0
     3  1  1  0
      11           -76.075234239673307              0.1717079812D-09
   current occupation vector 
     3  1  1  0
     3  1  1  0
      12           -76.075234239673165              0.1087482326D-09
   current occupation vector 
     3  1  1  0
     3  1  1  0
      13           -76.075234239673307              0.2660793808D-10
   current occupation vector 
     3  1  1  0
     3  1  1  0
      14           -76.075234239673364              0.3431699369D-11
   current occupation vector 
     3  1  1  0
     3  1  1  0
      15           -76.075234239673051              0.1627031843D-11
   current occupation vector 
     3  1  1  0
     3  1  1  0

  SCF has converged.

 Density matrix saved to file den.dat
 total electron number:   10.0000000000000     
     E(SCF)=       -76.075234239673236              0.5020428517D-12

  Eigenvector printing suppressed.

 @PUTMOS-I, Writing converged MOs to NEWMOS. 
 @PUTMOS-I, Symmetry   1 Full Blocks  5 Partial Blocksize   0
 @PUTMOS-I, Symmetry   2 Full Blocks  1 Partial Blocksize   2
 @PUTMOS-I, Symmetry   3 Full Blocks  2 Partial Blocksize   3
 @PUTMOS-I, Symmetry   4 Full Blocks  0 Partial Blocksize   2
 @PUTMOS-I, NEWMOS already exists and will be deleted. 


 
  ORBITAL EIGENVALUES (ALPHA)  (1H = 27.2113838 eV)

       MO #        E(hartree)               E(eV)           FULLSYM    COMPSYM
       ----   --------------------   --------------------   -------   ---------
    1     1         -20.5578451203        -559.4074140721      A1        A1 (1)
    2     2          -1.3397507248         -36.4564711964      A1        A1 (1)
    3    27          -0.6982480809         -19.0002965296      B2        B2 (3)
    4     3          -0.5689231806         -15.4811870304      A1        A1 (1)
    5    21          -0.4939032283         -13.4397903163                   (2)
  +++++++++++++++++++++++++++++++++++++++++++++++++++++++++++++++++++++++++++++
    6     4           0.1889442981           5.1414358172      A1        A1 (1)
    7    28           0.2538381995           6.9072886755      B2        B2 (3)
    8    29           0.6665369235          18.1373920553      B2        B2 (3)
    9     5           0.7507895862          20.4300235983      A1        A1 (1)
   10     6           1.0804295688          29.3999836857      A1        A1 (1)
   11    22           1.1252077028          30.6184586766                   (2)
   12    30           1.2167358870          33.1090672275      B2        B2 (3)
   13     7           1.5356623400          41.7874973503      A1        A1 (1)
   14    38           1.6017282980          43.5852434911      B2        B2 (4)
   15    23           1.8027806043          49.0561549652       1         1 (2)
   16     8           1.9432169733          52.8776229057      A1        A1 (1)
   17    31           2.0443460245          55.6294843336      B2        B2 (3)
   18    32           2.4397429331          66.3887813740      B2        B2 (3)
   19     9           2.5667918718          69.8459588084      A1        A1 (1)
   20    10           3.2926887402          89.5986171073      A1        A1 (1)
   21    24           3.3353766634          90.7602145703       1         1 (2)
   22    39           3.3836439181          92.0736333643      B2        B2 (4)
   23    33           3.4151649220          92.9313634999      B2        B2 (3)
   24    11           3.5940766523          97.7997992635      A1        A1 (1)
   25    12           3.9310436665         106.9691380209      A1        A1 (1)
   26    34           4.2323991536         115.1694378465      B2        B2 (3)
   27    25           6.1308666284         166.8293649716                   (2)
   28    13           6.6425501630         180.7529820254      A1        A1 (1)
   29    35           6.9104024793         188.0416142124      B2        B2 (3)
   30    14          19.7873059937         538.4399781498      A1        A1 (1)
   31    15          22.2081497935         604.3144879527      A1        A1 (1)
   32    36          22.3586371706         608.4094577313      B2        B2 (3)
   33    26          33.4218278809         909.4541864192                   (2)
   34    16          33.6914853733         916.7919399456      A1        A1 (1)
   35    37          33.8503247551         921.1141793281      B2        B2 (3)
   36    17         106.7294027522        2904.2547431248      A1        A1 (1)
   37    18         452.8866454419       12323.6723358810      A1        A1 (1)
   38    19        1965.1754310548       53475.1429272415      A1        A1 (1)
   39    20        9869.8799420004      268573.0913549464      A1        A1 (1)


  VSCF finished.

  @CHECKOUT-I, Total execution time (CPU/WALL):        0.27/       0.04 seconds.
--executable xvscf finished with status     0 in        0.05 seconds (walltime).
 --invoking executable--
/lustre/nyx/ukt/milias/work/software/cfour/cfour_v2.00beta_64bit_linux_serial/bin/xvtran
 @GETMEM-I,  Allocated     762 MB of main memory.
  Full RHF integral transformation
  Transformation of IIII integrals :
  1 pass through the AO integral file was required.
       19854 AO integrals were read.
       24603 MO integrals were written to HF2.
  Transformation of IIJJ integrals :
  1 pass through the AO integral file was required.
       18409 AO integrals were read.
       20547 MO integrals were written to HF2.
  Transformation of IJIJ integrals :
  1 pass through the AO integral file was required.
       31146 AO integrals were read.
       34932 MO integrals were written to HF2.
  Transformation of IJKL integrals :
  1 pass through the AO integral file was required.
        7362 AO integrals were read.
        7920 MO integrals were written to HF2.
  Summary of active molecular orbitals: 
------------------------------------------------------------------------
 
  Index      Eigenvalue    Symmetry    Index      Eigenvalue    Symmetry
------------------------------------------------------------------------
     1       -20.5578451        1        21      1965.1754311        1
     2        -1.3397507        1        22      9869.8799420        1
     3        -0.5689232        1        23         1.1252077        2
     4        -0.4939032        2        24         1.8027806        2
     5        -0.6982481        3        25         3.3353767        2
     6         0.1889443        1        26         6.1308666        2
     7         0.7507896        1        27        33.4218279        2
     8         1.0804296        1        28         0.2538382        3
     9         1.5356623        1        29         0.6665369        3
    10         1.9432170        1        30         1.2167359        3
    11         2.5667919        1        31         2.0443460        3
    12         3.2926887        1        32         2.4397429        3
    13         3.5940767        1        33         3.4151649        3
    14         3.9310437        1        34         4.2323992        3
    15         6.6425502        1        35         6.9104025        3
    16        19.7873060        1        36        22.3586372        3
[...]
  Largest element of residual vector :  0.37258013E-04.
  Largest element of DIIS residual   :  0.20413259E-04.
   The total correlation energy is -0.265843104565 a.u.
  Convergence information after     7 iterations: 
  Largest element of residual vector :  0.13297000E-04.
  Largest element of DIIS residual   :  0.42339241E-05.
   The total correlation energy is -0.265843124211 a.u.
  Convergence information after     8 iterations: 
  Largest element of residual vector :  0.22481383E-05.
  Largest element of DIIS residual   :  0.69336821E-06.
   The total correlation energy is -0.265843133095 a.u.
  Convergence information after     9 iterations: 
  Largest element of residual vector :  0.34348320E-06.
  Largest element of DIIS residual   : -0.15333928E-06.
   The total correlation energy is -0.265843104438 a.u.
  Convergence information after    10 iterations: 
  Largest element of residual vector :  0.69127764E-07.
  Largest element of DIIS residual   :  0.42221697E-07.
   The total correlation energy is -0.265843103939 a.u.
  Convergence information after    11 iterations: 
  Largest element of residual vector : -0.10173751E-07.
  Largest element of DIIS residual   : -0.97722051E-08.
   The total correlation energy is -0.265843102556 a.u.
  Convergence information after    12 iterations: 
  Largest element of residual vector :  0.31582800E-08.
  Largest element of DIIS residual   :  0.22754396E-08.
   The total correlation energy is -0.265843102421 a.u.
  Convergence information after    13 iterations: 
  Largest element of residual vector :  0.88018532E-09.
  Largest element of DIIS residual   :  0.72625191E-09.
   The total correlation energy is -0.265843102410 a.u.
  Convergence information after    14 iterations: 
  Largest element of residual vector :  0.63726219E-09.
  Largest element of DIIS residual   :  0.44820053E-09.
   The total correlation energy is -0.265843102399 a.u.
  Convergence information after    15 iterations: 
  Largest element of residual vector :  0.25233996E-09.
  Largest element of DIIS residual   :  0.96903926E-10.
   The total correlation energy is -0.265843102405 a.u.
  Convergence information after    16 iterations: 
  Largest element of residual vector :  0.62831535E-10.
  Largest element of DIIS residual   : -0.12823034E-10.
   The total correlation energy is -0.265843102406 a.u.
  Convergence information after    17 iterations: 
  Largest element of residual vector :  0.11502289E-10.
  Largest element of DIIS residual   :  0.38452015E-11.
   The total correlation energy is -0.265843102407 a.u.
  Convergence information after    18 iterations: 
  Largest element of residual vector :  0.91909726E-12.
  Largest element of DIIS residual   : -0.11561406E-11.
  Amplitude equations converged in    18iterations.
   The total correlation energy is -0.265843102407 a.u.
   The CC iterations have converged.

   Largest T1 amplitudes for spin case AA:
   i       a                 i       a                 i       a    
-----------------------------------------------------------------------------
[  3       6    ] 0.00643 [  5      32    ] 0.00585 [  5      30    ] 0.00541
[  5      28    ]-0.00469 [  3      11    ]-0.00419 [  2       8    ]-0.00418
[  4      26    ] 0.00347 [  5      35    ] 0.00343 [  3      15    ] 0.00327
[  3       7    ] 0.00290 [  2       6    ]-0.00285 [  5      33    ] 0.00282
[  4      24    ]-0.00257 [  3       9    ] 0.00250 [  5      29    ]-0.00248
-----------------------------------------------------------------------------
   Norm of T1AA vector (       66 symmetry allowed elements):  0.0162550003.
-----------------------------------------------------------------------------
   Largest T2 amplitudes for spin case AB:
       _       _                 _       _                 _       _
   i   j   a   b             i   j   a   b             i   j   a   b
-----------------------------------------------------------------------------
[  4   4  23  23]-0.04838 [  3   3   8   8]-0.03814 [  5   5  29  29]-0.03145
[  4   3  23   8]-0.02924 [  3   4   8  23]-0.02924 [  5   5  28  28]-0.02866
[  5   5   7   7]-0.02629 [  3   3  29  29]-0.02539 [  5   5  30  30]-0.02472
[  5   4  30  23]-0.02351 [  4   5  23  30]-0.02351 [  5   5  30  28]-0.02162
[  5   5  28  30]-0.02162 [  5   4  28  23]-0.02136 [  4   5  23  28]-0.02136
-----------------------------------------------------------------------------
   Norm of T2AB vector (     8354 symmetry allowed elements):  0.2166422632.
-----------------------------------------------------------------------------
       Summary of iterative solution of CC equations 
      -----------------------------------------------------------
                       Correlation           Total
       Iteration         Energy              Energy
      -----------------------------------------------------------
            0        -0.257223545307     -76.332365328918  DIIS 
            1        -0.260814853469     -76.335956637080  DIIS 
            2        -0.264824122646     -76.339965906256  DIIS 
            3        -0.265459164916     -76.340600948526  DIIS 
            4        -0.265827644577     -76.340969428188  DIIS 
            5        -0.265842209566     -76.340983993176  DIIS 
            6        -0.265843251946     -76.340985035557  DIIS 
            7        -0.265843104565     -76.340984888176  DIIS 
            8        -0.265843124211     -76.340984907822  DIIS 
            9        -0.265843133095     -76.340984916705  DIIS 
           10        -0.265843104438     -76.340984888048  DIIS 
           11        -0.265843103939     -76.340984887550  DIIS 
           12        -0.265843102556     -76.340984886166  DIIS 
           13        -0.265843102421     -76.340984886032  DIIS 
           14        -0.265843102410     -76.340984886021  DIIS 
           15        -0.265843102399     -76.340984886010  DIIS 
           16        -0.265843102405     -76.340984886015  DIIS 
           17        -0.265843102406     -76.340984886017  DIIS 
           18        -0.265843102407     -76.340984886018  DIIS 
      -----------------------------------------------------------
      A miracle has come to pass. The CC iterations have converged.
        E(CCSD)           =     -76.340984886018
        E(CCSD + T(CCSD)) =     -76.345863730159
        E(CCSD(T))        =     -76.345741909238
  @CHECKOUT-I, Total execution time (CPU/WALL):        5.00/       0.26 seconds.
--executable xvcc finished with status     0 in        0.27 seconds (walltime).
 --invoking executable--
/lustre/nyx/ukt/milias/work/software/cfour/cfour_v2.00beta_64bit_linux_serial/bin/xlambda
 @GETMEM-I,  Allocated     762 MB of main memory.
  The Lambda equations are solved for CCSD(T).
  Initial lambda amplitudes: 
  Convergence information after     1 iterations: 
  Largest element of residual vector : -0.28820958E-02.
  Largest element of DIIS residual   : -0.28820958E-02.
  Convergence information after     2 iterations: 
  Largest element of residual vector : -0.64609703E-03.
  Largest element of DIIS residual   : -0.58583997E-03.
  Convergence information after     3 iterations: 
  Largest element of residual vector : -0.26399551E-03.
  Largest element of DIIS residual   :  0.11142060E-03.
  Convergence information after     4 iterations: 
  Largest element of residual vector :  0.10351323E-03.
  Largest element of DIIS residual   :  0.77084347E-04.
  Convergence information after     5 iterations: 
  Largest element of residual vector :  0.45883680E-04.
  Largest element of DIIS residual   :  0.21450713E-04.
  Convergence information after     6 iterations: 
  Largest element of residual vector :  0.15762765E-04.
  Largest element of DIIS residual   :  0.50951198E-05.
  Convergence information after     7 iterations: 
  Largest element of residual vector :  0.39115127E-05.
  Largest element of DIIS residual   :  0.11566566E-05.
  Convergence information after     8 iterations: 
  Largest element of residual vector :  0.51512171E-06.
  Largest element of DIIS residual   : -0.17611148E-06.
  Convergence information after     9 iterations: 
  Largest element of residual vector :  0.84800267E-07.
  Largest element of DIIS residual   : -0.52478233E-07.
  Convergence information after    10 iterations: 
  Largest element of residual vector : -0.24923959E-07.
  Largest element of DIIS residual   :  0.15006336E-07.
  Convergence information after    11 iterations: 
  Largest element of residual vector :  0.90777333E-08.
  Largest element of DIIS residual   :  0.67217349E-08.
  Convergence information after    12 iterations: 
  Largest element of residual vector :  0.45665635E-08.
  Largest element of DIIS residual   :  0.33617122E-08.
  Convergence information after    13 iterations: 
  Largest element of residual vector :  0.21904871E-08.
  Largest element of DIIS residual   :  0.14992166E-08.
  Convergence information after    14 iterations: 
  Largest element of residual vector :  0.10059404E-08.
  Largest element of DIIS residual   :  0.29491572E-09.
  Convergence information after    15 iterations: 
  Largest element of residual vector :  0.19434557E-09.
  Largest element of DIIS residual   :  0.75546264E-10.
  Convergence information after    16 iterations: 
  Largest element of residual vector :  0.47127790E-10.
  Largest element of DIIS residual   :  0.27399237E-10.
  Convergence information after    17 iterations: 
  Largest element of residual vector :  0.14164895E-10.
  Largest element of DIIS residual   : -0.54134828E-11.
  Convergence information after    18 iterations: 
  Largest element of residual vector : -0.29971060E-11.
  Largest element of DIIS residual   :  0.24103486E-11.
  Convergence information after    19 iterations: 
  Largest element of residual vector :  0.13749600E-11.
  Largest element of DIIS residual   :  0.91620538E-12.
  Amplitude equations converged in    19 iterations.
      The lambda equations have converged.
  @CHECKOUT-I, Total execution time (CPU/WALL):        3.19/       0.18 seconds.
--executable xlambda finished with status     0 in        0.19 seconds (walltime).
 --invoking executable--
/lustre/nyx/ukt/milias/work/software/cfour/cfour_v2.00beta_64bit_linux_serial/bin/xdens
 @GETMEM-I,  Allocated     762 MB of main memory.
  CCSD(T) density and intermediates are calculated.
  The perturbed orbitals are chosen canonical.
  The iterative expansion of D(ai) converged after  16 iterations.
  ----------------------------------------------------------------------
                 Natural orbital occupation numbers
  ----------------------------------------------------------------------
  1.99908  1.98341  1.97166  1.96481  1.96199  0.02826  0.02588  0.01739
  0.01182  0.00634  0.00594  0.00519  0.00472  0.00449  0.00133  0.00129
  0.00096  0.00096  0.00078  0.00061  0.00057  0.00053  0.00053  0.00039
  0.00024  0.00023  0.00013  0.00011  0.00009  0.00008  0.00006  0.00006
  0.00004  0.00001  0.00000  0.00000  0.00000  0.00000  0.00000
  Trace of density matrix :  10.0000000000.
  ----------------------------------------------------------------------
  Density calculation successfully completed.
  @CHECKOUT-I, Total execution time (CPU/WALL):        0.55/       0.03 seconds.
--executable xdens finished with status     0 in        0.04 seconds (walltime).
 --invoking executable--
/lustre/nyx/ukt/milias/work/software/cfour/cfour_v2.00beta_64bit_linux_serial/bin/xanti
 @GETMEM-I,  Allocated     762 MB of main memory.
 CCSD(T) MO gammas will be sorted to Mulliken order.
  @CHECKOUT-I, Total execution time (CPU/WALL):        0.42/       0.03 seconds.
--executable xanti finished with status     0 in        0.05 seconds (walltime).
 --invoking executable--
/lustre/nyx/ukt/milias/work/software/cfour/cfour_v2.00beta_64bit_linux_serial/bin/xbcktrn
 @GETMEM-I,  Allocated     762 MB of main memory.
  @CHECKOUT-I, Total execution time (CPU/WALL):        0.01/       0.01 seconds.
--executable xbcktrn finished with status     0 in        0.02 seconds (walltime).
 --invoking executable--
/lustre/nyx/ukt/milias/work/software/cfour/cfour_v2.00beta_64bit_linux_serial/bin/xvdint
 @GETMEM-I,  Allocated     762 MB of main memory.
 One- and two-electron integral derivatives are calculated
 for RHF-CC/MBPT gradients and dipole moments.
 Spherical gaussians are used.

                     Kinetic energy integral gradient
                     --------------------------------

                         O #1 z    -0.8451247452
                         H #2 y     1.0768307951
                         H #2 z     0.8451247452


 O #1       0.0000000000            0.0000000000           -0.8451247452
 H #2 1     0.0000000000            0.5384153975            0.4225623726
 H #2 2     0.0000000000           -0.5384153975            0.4225623726



                   Nuclear attraction integral gradient
                   ------------------------------------

                         O #1 z     8.0582325739
                         H #2 y   -10.2244878060
                         H #2 z    -8.0582325739


 O #1       0.0000000000            0.0000000000            8.0582325739
 H #2 1     0.0000000000           -5.1122439030           -4.0291162870
 H #2 2     0.0000000000            5.1122439030           -4.0291162870



                      Reorthonormalization gradient
                      -----------------------------

                         O #1 z    -0.4211750083
                         H #2 y     0.4715659086
                         H #2 z     0.4211750083


 O #1       0.0000000000            0.0000000000           -0.4211750083
 H #2 1     0.0000000000            0.2357829543            0.2105875041
 H #2 2     0.0000000000           -0.2357829543            0.2105875041


  Evaluation of 1e integral derivatives required    0.26 seconds.
  Evaluation of 2el integral derivatives

                      Two-electron integral gradient
                      ------------------------------

                         O #1 z    -3.7532035503
                         H #2 y     4.6111697634
                         H #2 z     3.7532035503


 O #1       0.0000000000            0.0000000000           -3.7532035503
 H #2 1     0.0000000000            2.3055848817            1.8766017752
 H #2 2     0.0000000000           -2.3055848817            1.8766017752


  Evaluation of 2e integral derivatives required    2.22 seconds.

                            Molecular gradient
                            ------------------

                         O #1 z     0.0000000001
                         H #2 y    -0.0000000001
                         H #2 z    -0.0000000001


 O #1       0.0000000000            0.0000000000            0.0000000001
 H #2 1     0.0000000000            0.0000000000            0.0000000000
 H #2 2     0.0000000000            0.0000000000            0.0000000000


  Molecular gradient norm 0.120E-09

                           Total dipole moment
                           -------------------

                               au             Debye

                    z     -0.80233156     -2.03932377

  Conversion factor used: 1 a.u. =   2.54174691 Debye 


  @CHECKOUT-I, Total execution time (CPU/WALL):        2.49/       0.19 seconds.
--executable xvdint finished with status     0 in        0.21 seconds (walltime).
 --invoking executable--
/lustre/nyx/ukt/milias/work/software/cfour/cfour_v2.00beta_64bit_linux_serial/bin/xjoda
   JODA beginning optimization cycle #  7.
   Retrieving information from last optimization cycle.
 OriVec is   0.000000000000000E+000  -1.00000000000000     
 -1.567322475685078E-016                    -2
  igrd and ihes are                      0                    -1
   Internal coordinate forces and energy gradients (atomic units): 
           R       dV/dR             R       dV/dR             R       dV/dR
 [R    ]  1.81105  0.0000000 [R    ]  1.81105  0.0000000 [A    ]  1.79657  0.0000000
                     6                    -1                     0 ****
   Hessian from cycle  6 read.
   BFGS update using last two gradients and previous step.
   Optimization cycle  7.  Updating structure with Newton-Raphson step.
  @EFOL-I, Current internal coordinate Hessian written to FCMINT.
   There are   2 independent internal coordinates which will be optimized.
   Hessian matrix in totally symmetric symmetry coordinates: 
              R         A    
  R          0.542549  0.047117
  A          0.047117  0.167710
   The eigenvectors of the Hessian matrix: 
                   1         2
  R          0.122835  0.992427
  A         -0.992427  0.122835
   The eigenvalues of the Hessian matrix: 
     0.16188    0.54838
   Gradients along Hessian eigenvectors: 
     0.00000    0.00000
   There are  0 negative eigenvalues.
   Summary of Optimization Cycle: 
   The maximum unscaled step is:    0.00000.
   Scale factor set to:  1.00000.
   Forces are in hartree/bohr and hartree/radian.
   Parameter values are in Angstroms and degrees.
--------------------------------------------------------------------------
  Parameter     dV/dR           Step          Rold            Rnew
--------------------------------------------------------------------------
    R       0.0000000000   -0.0000000001    0.9583681355    0.9583681354
    A       0.0000000000    0.0000000068  102.9357410670  102.9357410738
--------------------------------------------------------------------------
  Minimum force:  0.000000000 / RMS force:  0.000000000
--------------------------------------------------------------------------------
   RMS gradient is below .10000E-09.
   Convergence criterion satisfied.  Optimization completed.
--------------------------------------------------------------------------------
   Interatomic distance matrix (Angstroms) 
 
                 O             H             H    
                [ 1]        [ 2]        [ 3]
  O    [ 1]     0.00000
  H    [ 2]     0.95837     0.00000
  H    [ 3]     0.95837     1.49938     0.00000
 @EFOL-I, Writing out completion flag to disk
 
********************************************************************************
*                          Final ZMATnew file                                  *
********************************************************************************
Geometry optimization of H2O at CCSD(T) level (from the cfour web)              
O                                                                               
H 1 R*                                                                          
H 1 R* 2 A*                                                                     
                                                                                
R    =        0.958368135400718                                                 
A    =      102.935741073807549                                                 
                                                                                
*ACES2(CALC=CCSD(T),BASIS=dzp                                                   
CONTRACTION=UNCONTRACTED                                                        
RELATIVISTIC=X2C1E                                                              
GEO_CONV=10                                                                     
CC_CONV=12                                                                      
LINEQ_CONV=12                                                                   
SCF_CONV=12)                                                                    
                                                                                
********************************************************************************
--executable xjoda finished with status     0 in        0.02 seconds (walltime).
  The final electronic energy is       -76.345741909237901 a.u. 
  This computation required                           13.48 seconds (walltime).

real	0m13.492s
user	2m19.132s
sys	0m7.496s
