Running on host comp46
Time is Sun Jul 28 17:38:52 CEST 2019
Directory is /home/umbilias
This jobs runs on the following processors:
comp46 comp46 comp46 comp46
Unique nodes (processors), from PBS_NODEFILE:
comp46
This job has allocated 4 cpus
# of processors in node: 12
The host (main) node has  cpus.
Unique nodes (processors) :  comp46

MKL_NUM_THREADS=4
MKL_DYNAMIC=FALSE
OMP_NUM_THREADS=1
--------------------------------------------

Filesystem            Size  Used Avail Use% Mounted on
/dev/sdb1             459G  8.5G  427G   2% /tmp
 --invoking executable--
/work/umbilias/work/software/cfour/cfour_v2.1_openmpi1.8.4_Intel14/cfour-public-master/bin/xinitenv
--executable xinitenv finished with status     0 in        0.60 seconds (walltime).
 --invoking executable--
/work/umbilias/work/software/cfour/cfour_v2.1_openmpi1.8.4_Intel14/cfour-public-master/bin/xjoda


   *************************************************************************
         <<<     CCCCCC     CCCCCC   |||     CCCCCC     CCCCCC   >>>
       <<<      CCC        CCC       |||    CCC        CCC         >>>
      <<<      CCC        CCC        |||   CCC        CCC            >>>
    <<<        CCC        CCC        |||   CCC        CCC              >>>
      <<<      CCC        CCC        |||   CCC        CCC            >>>
       <<<      CCC        CCC       |||    CCC        CCC         >>>
         <<<     CCCCCC     CCCCCC   |||     CCCCCC     CCCCCC   >>>
   *************************************************************************

     ****************************************************************
     * CFOUR Coupled-Cluster techniques for Computational Chemistry *
     ****************************************************************
 

   Department of Chemistry                Institut fuer Physikalische Chemie
   University of Florida                  Universitaet Mainz
   Gainesville, FL 32611, USA             D-55099 Mainz, Germany

   Department of Chemistry                Fakultaet fuer Chemie und Biowiss.
   Johns Hopkins University               Karlsruher Institut fuer Technologie
   Baltimore, MD 21218, USA               D-76131 Karlsruhe, Germany

   Department of Chemistry                Department of Physical Chemistry
   Southern Methodist University          Eotvos Lorand University
   Dallas, TX 75275, USA                  H-1053 Budapest, Hungary

 
                       Version 2.1
 
                     comp46                                            
                     Sun Jul 28 17:39:08 CEST 2019                     
                     integer*8 version is running
 
********************************************************************************
*                          Input from ZMAT file                                *
********************************************************************************
Geometry optimization of H2O at CCSD(T) level (from the cfour web)              
O                                                                               
H 1 R*                                                                          
H 1 R* 2 A*                                                                     
                                                                                
R=0.958                                                                         
A=104.5                                                                         
                                                                                
*ACES2(CALC=CCSD(T),BASIS=dzp                                                   
CONTRACTION=UNCONTRACTED                                                        
RELATIVISTIC=X2C1E                                                              
GEO_CONV=10                                                                     
CC_CONV=12                                                                      
LINEQ_CONV=12                                                                   
SCF_CONV=12)                                                                    
                                                                                
********************************************************************************
 
     PARALLEL RUN STARTED ON            1  CORES/NODES.
 
  @GTFLGS-F, ABCDTYPE=AOBASIS needed for efficient parallel computations.
    -------------------------------------------------------------------
                    CFOUR Control Parameters 
    -------------------------------------------------------------------
        External           Internal           Value            Units
          Name               Name
    -------------------------------------------------------------------
       ABCDTYPE             IABCDT         STANDARD    [  0]    ***   
       ANHARMONIC           IANHAR         OFF         [  0]    ***   
       ANH_ALGORIT          IANALG         STANDARD    [  0]    ***   
       ANH_DERIVAT          IANDER         SECOND      [  1]    ***   
       ANH_MODE             ANHMOD         VIBRATION   [  0]    ***   
       ANH_STEPSIZ          ICUBST             50000          x 10-6  
       ANH_SYMMETR          IANHSM         ABELIAN     [  0]    ***   
       AO_LADDERS           IAOLAD         SINGLEPASS  [  1]    ***   
       AV_SCF               IAVSCF         OFF         [  0]    ***   
       BASIS                IBASIS         dzp         [ 29]    ***   
       BOTHVECTORS          BOTHVC         OFF         [  0]    ***   
       BOX_POTENT           IPIAB          OFF         [  0]    ***   
       BREIT                IBREIT         OFF         [  0]    ***   
       BRUCK_CONV           IBRTOL          10D-  4             ***   
       BRUECKNER            IBRKNR         OFF         [  0]    ***   
       BUFFERSIZE           IBUFFS              4096            ***   
       CACHE_RECS           ICHREC             10               ***   
       CALCLEVEL            ICLLVL         CCSD(T)     [ 22]    ***   
       CCORBOPT             ICCORB         OFF         [  0]  x 0.01  
       CC_CONV              ICCCNV          10D- 12             ***   
       CC_EXPORDER          ICCEOR              5               ***   
       CC_EXTRAPOL          ICCEXT         DIIS        [  1]    ***   
       CC_GUESS             ICCGES         MP2         [  0]    ***   
       CC_MAXCYC            ICCCYC            100              cycles 
       CC_PROGRAM           ICCPRO         VCC         [  0]    ***   
       CHARGE               ICHRGE              0               ***   
       CHOLESKY             ICHOLE         OFF         [  0]    ***   
       CIS_CONV             ICISTL              5               ***   
       COMM_SIZE            IPSIZE            ***               ***   
       CONSTANT             ICONST         OLD         [  1]    ***   
       CONTINUUM            ICONTU         NONE        [  0]    ***   
       CONTRACTION          ICNTYP         UNCONTRACTED[  2]    ***   
       COORDINATES          ICOORD         INTERNAL    [  0]    ***   
       CPHF_CONVER          ICPHFT          10D- 16             ***   
       CPHF_MAXCYC          ICPHFC             64              cycles 
       CUBIC                ICUBIC         OFF         [  0]    ***   
       CURVILINEAR          ICURVY         OFF         [  0]    ***   
       DBOC                 IDBOC          OFF         [  0]    ***   
       DCT                  IDCT           OFF         [  0]    ***   
       DERIV_LEV            IDRLVL         FIRST       [  1]    ***   
       DEVMEM_SIZE          IDVMEM          50000000           MByte  
       DIAG_MRCC            IEOMST          10D-  0             ***   
       DIFF_TYPE            IDIFTY         RELAXED     [  0]    ***   
       DIRECT               IDIRCT         OFF         [  0]    ***   
       DROPMO               IDRPMO      NONE         
       ECP                  IECP           OFF         [  0]    ***   
       EIGENVECTOR          IVEC                1               ***   
       EL_ANHARM            IELANH         OFF         [  0]    ***   
       EOMFOLLOW            IEOMSR         ENERGY      [  0]    ***   
       EOMIP                IEOMIP         OFF         [  0]    ***   
       EOMLEVEL             HBARFM         SAME        [  0]    ***   
       EOM_MRCC             IMRCCE         NEW         [  1]    ***   
       EOM_NONIT            EOMNON         OFF         [  0]    ***   
       EOM_NSING            IEOMSI          10D-  0             ***   
       EOM_NSTATES          IMRCCD         DAVIDSON    [  0]    ***   
       EOM_NTRIP            IEOMTR          10D-  0             ***   
       EOM_ORDER            IEXORD         ENERGY      [  0]    ***   
       EOM_PROPSTA          IEOMST              0               ***   
       ESTATE_CONV          IEXTOL          10D-  5             ***   
       ESTATE_DIAG          IEXDIG         ITERATIVE   [  0]    ***   
       ESTATE_LOCK          IESLOC         ON          [  1]    ***   
       ESTATE_MAXC          IEXMXC             40               ***   
       ESTATE_PROP          IEXPRP         OFF         [  0]    ***   
       EVAL_HESS            IRECAL              0            # of cyc.
       EXCITATION           IEXCIT              0               ***   
       EXCITE               IEXCIT         NONE        [  0]    ***   
       EXTERN_POT           IEXPOT         OFF         [  0]    ***   
       FCGRADNEW            IFCGNW         OFF         [  0]    ***   
       FC_FIELD             IFINFC              0             x 10-6  
       FD_CALTYPE           IFDCAL         GRADONLY    [  0]    ***   
       FD_PROJECT           IFDPRJ         OFF         [  1]    ***   
       FD_STEPSIZE          IDISFD              0            10-4 bohr
       FD_USEGROUP          IFDGRP         FULL        [  0]    ***   
       FILE_RECSIZ          IFLREC              4096           words  
       FINITE_PERT          IFIPER              0             x 10-6  
       FIXGEOM              IFIXGM         OFF         [  0]    ***   
       FOCK                 IFOCK          AO          [  1]    ***   
       FREQ_ALGORI          IVIALG         STANDARD    [  0]    ***   
       FROZEN_CORE          IFROCO         OFF         [  0]    ***   
       GAMMA_ABCD           IGABCD         STORE       [  0]    ***   
       GAMMA_ABCI           IGABCI         STORE       [  0]    ***   
       GENBAS_1             IGNBS1              0               ***   
       GENBAS_2             IGNBS2              0               ***   
       GENBAS_3             IGNBS3              0               ***   
       GENBAS_4             IGNBS4              0               ***   
       GEO_CONV             ICONTL             10              H/bohr 
       GEO_MAXCYC           IOPTCY             50               ***   
       GEO_MAXSTEP          IMXSTP            300            millibohr
       GEO_METHOD           INR            NR          [  0]    ***   
       GIAO                 IGIAO          OFF         [  1]    ***   
       GIMIC                IGIMIC         OFF         [  0]    ***   
       GRID                 IGRID          OFF         [  0]    ***   
       GRID_ALGO            IGALGO         SERIAL      [  0]    ***   
       GUESS                IGUESS         MOREAD      [  0]    ***   
       HBAR                 IHBAR          OFF         [  0]    ***   
       HESS_TYPE            IHESTP         SCF         [  0]    ***   
       HF2_FILE             IHF2Fl         USE         [  1]    ***   
       HFSTABILITY          ISTABL         OFF         [  0]    ***   
       INCORE               INCORE         OFF         [  0]    ***   
       INPUT_MRCC           IMRCC          ON          [  1]    ***   
       INTEGRALS            INTTYP         VMOL        [  1]    ***   
       JODA_PRINT           IJPRNT              0               ***   
       KEYWORD_OUT          IDMPKW         NO          [  0]    ***   
       LINDEP_TOL           ILINDP              8               ***   
       LINEQ_CONV           IZTACN          10D- 12           cycles  
       LINEQ_EXPOR          ILMAXD              5               ***   
       LINEQ_MAXCY          ILMAXC            100               ***   
       LINEQ_TYPE           ILTYPE         DIIS        [  1]    ***   
       LOCK_ORBOCC          ILOCOC         OFF         [  0]    ***   
       MEMORY_SIZE          IMEMSZ         100000000           words  
       MEM_UNIT             IMEMU          INTEGERWORDS[  0]    ***   
       MRCC                 IMRCCC         OFF         [  0]    ***   
       MULTIPLICTY          IMULTP              1               ***   
       NACOUPLING           IVCOUP         OFF         [  0]    ***   
       NEGEVAL              IDIE           ABORT       [  0]    ***   
       NEWNORM              INEWNO         OFF         [  0]    ***   
       NON-HF               INONHF         OFF         [  0]    ***   
       NTOP_TAMP            ITOPT2             15               ***   
       NUC_MODEL            INUCMO         POINT       [  0]    ***   
       OCCUPATION           IOCCU   ESTIMATED BY SCF 
       OPEN-SHELL           IOPEN          SPIN-ORBITAL[  0]    ***   
       OPTVIB               IOPTVB         OFF         [  0]    ***   
       ORBITALS             IORBTP         STANDARD    [  0]    ***   
       PARALLEL             IPARAL         ON          [  1]    ***   
       PARA_INT             IPINTS         ON          [  1]    ***   
       PARA_PRINT           IPPRIN              0               ***   
       PERT_ORB             IPTORB         CANONICAL   [  1]    ***   
       POINTS               IGRDFD              0               ***   
       PRINT                IPRNT               0               ***   
       PROPS                IPROPS         OFF         [  0]    ***   
       PROP_INTEGR          IINTYP         INTERNAL    [  0]    ***   
       PSI                  IPSI           OFF         [  0]    ***   
       QC_ALG               IQCALG         FLM         [  0]    ***   
       QC_LINALG            IQCLIN         TRIDIAG     [  2]    ***   
       QC_MAXCYC            IQCMAX          10D-100           cycles  
       QC_MAXSCFCY          IQCMSC          10D- 15           cycles  
       QC_RTRUST            IQCRTR          10D-  0           x 10-3  
       QC_SKIPSCF           IQCSKI         OFF         [  0]    ***   
       QC_START             IQCSTA          10D-  1             ***   
       QRHFGUESS            IQGUES         OFF         [  0]    ***   
       QUARTIC              IQUART         OFF         [  0]    ***   
       RAMAN_INT            IRAMIN         OFF         [  0]    ***   
       RAMAN_ORB            IRAMRE         UNRELAXED   [  0]    ***   
       RDO                  IRDOFM         ON          [  1]    ***   
       REDUCE_REPR          REDREP         Ir          [  0]    ***   
       REFERENCE            IREFNC         RHF         [  0]    ***   
       RELATIVIST           IRELAT         X2C1E       [ 11]    ***   
       RELAX_DENS           IRDENS         ON          [  1]    ***   
       RESET_FLAGS          IRESET         OFF         [  0]    ***   
       RESTART_CC           ICCRES         OFF         [  0]    ***   
       ROT_EVEC             ROTVEC              0               ***   
       SAVE_INTS            ISVINT         OFF         [  0]    ***   
       SCALE_ON             ISTCRT              0               ***   
       SCF_CONV             ISCFCV          10D- 12             ***   
       SCF_DAMPING          IDAMP               0             x 10-3  
       SCF_EXPORDE          IRPPOR              6               ***   
       SCF_EXPSTAR          IRPPLS              8               ***   
       SCF_EXTRAPO          IRPP           ON          [  1]    ***   
       SCF_MAXCYC           ISCFCY            150              cycles 
       SCF_NOSTOP           ISCFST         OFF         [  0]    ***   
       SCF_PRINT            ISCFPR              0               ***   
       SCF_PROG             ISCFPR         SCF         [  0]    ***   
       SD_FIELD             IFINSD              0             x 10-6  
       SOPERT               IPERSO         OFF         [  0]    ***   
       SPHERICAL            IDFGHI         ON          [  1]    ***   
       SPINORBIT            ISOCAL         OFF         [  0]    ***   
       SPINROTATIO          ISRCON         OFF         [  0]    ***   
       SPIN_FLIP            ISPFLP         OFF         [  0]    ***   
       SPIN_ORBIT           ISPORB         OFF         [  0]    ***   
       SPIN_SCAL            ISCSMP         OFF         [  0]    ***   
       STEEPSCALE           ISTPSC              1000          x 10-3  
       SUBGROUP             ISUBGP         DEFAULT     [  0]    ***   
       SUBGRPAXIS           ISBXYZ         X           [  0]    ***   
       SYMMETRY             ISYM           ON          [  0]    ***   
       SYM_CHECK            ISYMCK         OVERRIDE    [  1]    ***   
       T3_EXTRAPOL          IT3EXT         OFF         [  0]    ***   
       T4_EXTRAPOL          IT4EXP         OFF         [  0]    ***   
       TAMP_SUM             IEVERY              5               ***   
       TESTSUITE            ITESTS         OFF         [  0]    ***   
       THERMOCH             ITHERM         OFF         [  0]    ***   
       TOL_CHOLESK          ITOLCH          10D-  4             ***   
       TRANGRAD             IRESRM         OFF         [  0]    ***   
       TRANS_INV            ITRAIN         USE         [  0]    ***   
       TREAT_PERT           ITREAT         SIMULTANEOUS[  0]    ***   
       TRIP_ALGORI          ITRALG         NORMAL      [  0]    ***   
       UIJ_THRESHO          IUIJTH              1               ***   
       UNITS                IUNITS         ANGSTROM    [  0]    ***   
       UNOS                 IUNOS          OFF         [  0]    ***   
       UPDATE_HESS          IHUPDT         ON          [  1]    ***   
       VIBPHASE             ISETPH         STANDARD    [  0]    ***   
       VIBRATION            IVIB           NO          [  0]    ***   
       VIB_ALGORIT          IGEALG         STANDARD    [  0]    ***   
       VNATORB              IVNORB         OFF         [  0]    ***   
       VTRAN                IVTRAN         FULL/PARTIAL[  0]    ***   
       XFIELD               IXEFLD              0             x 10-6  
       XFORM_TOL            IXFTOL          10D- 11             ***   
       YFIELD               IYEFLD              0             x 10-6  
       ZFIELD               IZEFLD              0             x 10-6  
       ZSCALE_EXP           IZEXPS         OFF         [  0]    ***   
    -------------------------------------------------------------------
   3 entries found in Z-matrix 
   Job Title : Geometry optimization of H2O at CCSD(T) level (from the cfour web)              
   There are  2 unique internal coordinates.
   Of these,  2 will be optimized.
   User supplied Z-matrix: 
--------------------------------------------------------------------------------
       SYMBOL    BOND      LENGTH    ANGLE     ANGLE     DIHED     ANGLE
                  TO      (ANGST)    WRT      (DEG)      WRT      (DEG)
--------------------------------------------------------------------------------
        O    
        H          1         R    
        H          1         R          2        A    
                  *Initial values for internal coordinates* 
                      Name             Value
                        R               0.9580000000
                        A             104.5000000000
--------------------------------------------------------------------------------
   Rotational constants (in cm-1): 
          9.5117577156            14.5760005103            27.3769230540
   Rotational constants (in MHz): 
     285155.3624957671        436977.5632982104        820739.6204653939
********************************************************************************
   The full molecular point group is C2v .
   The largest Abelian subgroup of the full molecular point group is C2v .
   The computational point group is C2v .
********************************************************************************
--------------------------------------------------------------------------------
   Analysis of internal coordinates specified by Z-matrix 
--------------------------------------------------------------------------------
   *The nuclear repulsion energy is    9.187331653302877 a.u.
   *There are   2 degrees of freedom within the tot. symm. molecular subspace.
   *Z-matrix requests optimization of   2 coordinates.
   *The optimization is unconstrained and your Z-matrix is great.
--------------------------------------------------------------------------------


 ----------------------------------------------------------------
         Coordinates used in calculation (QCOMP) 
 ----------------------------------------------------------------
 Z-matrix   Atomic            Coordinates (in bohr)
  Symbol    Number           X              Y              Z
 ----------------------------------------------------------------
     O         8         0.00000000     0.00000000     0.12403889
     H         1         0.00000000    -1.43143120    -0.98429357
     H         1         0.00000000     1.43143120    -0.98429357
 ----------------------------------------------------------------
 
   Interatomic distance matrix (Angstroms) 
 
                 O             H             H    
                [ 1]        [ 2]        [ 3]
  O    [ 1]     0.00000
  H    [ 2]     0.95800     0.00000
  H    [ 3]     0.95800     1.51496     0.00000
 rotcon2
   Rotational constants (in cm-1): 
          9.5117577156            27.3769230540            14.5760005103
   Rotational constants (in MHz): 
     285155.3624957672        820739.6204653943        436977.5632982106
  @GTFLGS-F, ABCDTYPE=AOBASIS needed for efficient parallel computations.
  Uncontracted basis dzp        is used.
  Uncontracted basis dzp        is used.
  Uncontracted basis dzp        is used.
  Uncontracted basis dzp        is used.
  There are   39 basis functions.
 @CHECKOUT-I, Total execution time (CPU/WALL):        0.15/       0.64 seconds.
--executable xjoda finished with status     0 in        1.11 seconds (walltime).
 --invoking executable--
/work/umbilias/work/software/cfour/cfour_v2.1_openmpi1.8.4_Intel14/cfour-public-master/bin/xvmol
 PARALLEL VERSION OF MOLECULE STARTED ON NODE            0 :
********************************************************************************
                    INPUT FROM MOL FILE
********************************************************************************
INTGRL        1    0    1    0    0    0    0    0    0                         
         *** CFOUR Program System (Release V0.1) ***                            
Geometry optimization of H2O at CCSD(T) level (from the cfour web)              
    2    2 X  Y       0.10E-08              0    0                              
   9999.00      3.00                                                            
          8.00000000    1    3    3    2    1                                   
O #1   0.000000000000000   0.000000000000000   0.124038886472225                
    5    5                                                                      
   6773.37470000000        1.00000000000000       0.000000000000000E+000        
  0.000000000000000E+000  0.000000000000000E+000  0.000000000000000E+000        
   1016.79700000000       0.000000000000000E+000   1.00000000000000             
  0.000000000000000E+000  0.000000000000000E+000  0.000000000000000E+000        
   231.267380000000       0.000000000000000E+000  0.000000000000000E+000        
   1.00000000000000       0.000000000000000E+000  0.000000000000000E+000        
   65.0084540000000       0.000000000000000E+000  0.000000000000000E+000        
  0.000000000000000E+000   1.00000000000000       0.000000000000000E+000        
   20.4998080000000       0.000000000000000E+000  0.000000000000000E+000        
  0.000000000000000E+000  0.000000000000000E+000   1.00000000000000             
    2    2                                                                      
   6.71606640000000        1.00000000000000       0.000000000000000E+000        
   1.14715720000000       0.000000000000000E+000   1.00000000000000             
    1    1                                                                      
  0.334232500000000        1.00000000000000                                     
    3    3                                                                      
   17.6942640000000        1.00000000000000       0.000000000000000E+000        
  0.000000000000000E+000                                                        
   3.85360270000000       0.000000000000000E+000   1.00000000000000             
  0.000000000000000E+000                                                        
   1.04674650000000       0.000000000000000E+000  0.000000000000000E+000        
   1.00000000000000                                                             
    1    1                                                                      
  0.275860400000000        1.00000000000000                                     
    1    1                                                                      
   1.20000000000000        1.00000000000000                                     
          1.00000000    1    2    1    1                                        
H #2   0.000000000000000  -1.431431200720141  -0.984293568339221                
    4    4                                                                      
   13.0107010000000        1.00000000000000       0.000000000000000E+000        
  0.000000000000000E+000  0.000000000000000E+000                                
   1.96225720000000       0.000000000000000E+000   1.00000000000000             
  0.000000000000000E+000  0.000000000000000E+000                                
  0.444538000000000       0.000000000000000E+000  0.000000000000000E+000        
   1.00000000000000       0.000000000000000E+000                                
  0.121949600000000       0.000000000000000E+000  0.000000000000000E+000        
  0.000000000000000E+000   1.00000000000000                                     
    1    1                                                                      
  0.800000000000000        1.00000000000000                                     
FINISH                                                                          
 
********************************************************************************

Running with 1 threads/proc

 ONE- AND TWO-ELECTRON INTEGRALS OVER SYMMETRY-ADAPTED AOS ARE CALCULATED.

  SPHERICAL HARMONICS ARE USED.
  
  INTEGRALS LESS THAN  0.10E-13 ARE NEGLECTED.

  NUCLEAR REPULSION ENERGY :    9.1873316533 A.U.
  @MOLECU-I, ONE ELECTRON INTEGRALS (CPU/WALL):        0.00/       0.00 SECONDS.
  @TWOEL-I,      19852 INTEGRALS OF SYMMETRY TYPE  I I I I
  @TWOEL-I,      31145 INTEGRALS OF SYMMETRY TYPE  I J I J
  @TWOEL-I,      18409 INTEGRALS OF SYMMETRY TYPE  I I J J
  @TWOEL-I,       7362 INTEGRALS OF SYMMETRY TYPE  I J K L
  @TWOEL-I, TOTAL NUMBER OF 2-E INTEGRALS      76768.
  @MOLECU-I, TWO ELECTRON INTEGRALS (CPU/WALL):        0.06/       0.06 SECONDS.
 @CHECKOUT-I, Total execution time (CPU/WALL):        0.07/       0.07 seconds.
--executable xvmol finished with status     0 in        0.62 seconds (walltime).
 --invoking executable--
/work/umbilias/work/software/cfour/cfour_v2.1_openmpi1.8.4_Intel14/cfour-public-master/bin/xvmol2ja
 @GETMEM-I,  Allocated     762 MB of main memory.
 @CHECKOUT-I, Total execution time (CPU/WALL):        0.00/       0.00 seconds.
--executable xvmol2ja finished with status     0 in        0.59 seconds (walltime).
  a 
 --invoking executable--
/work/umbilias/work/software/cfour/cfour_v2.1_openmpi1.8.4_Intel14/cfour-public-master/bin/xvdint
 @GETMEM-I,  Allocated     762 MB of main memory.
 One- and two-electron integral derivatives are calculated
 for RHF-CC/MBPT gradients and dipole moments.
 Spherical gaussians are used.
 Evaluated one-electron integrals:   dipole integrals
  keyword missing for gradient integrals in sfree
  pVp integrals for spin-free DHF
  derivative pVp integrals for spin-free DHF
 Evaluation of 1e integral derivatives required    0.47 seconds.
 Evaluation of 2e integral derivatives required    0.00 seconds.


 @CHECKOUT-I, Total execution time (CPU/WALL):        0.27/       0.27 seconds.
--executable xvdint finished with status     0 in        0.83 seconds (walltime).
 --invoking executable--
/work/umbilias/work/software/cfour/cfour_v2.1_openmpi1.8.4_Intel14/cfour-public-master/bin/xvpropx2c
 @GETMEM-I,  Allocated     762 MB of main memory.
 generating sfx2c-1e gradient integrals
 end generating sfx2c-1e gradient integrals
 @CHECKOUT-I, Total execution time (CPU/WALL):        0.09/       0.09 seconds.
--executable xvpropx2c finished with status     0 in        0.61 seconds (walltime).
 --invoking executable--
/work/umbilias/work/software/cfour/cfour_v2.1_openmpi1.8.4_Intel14/cfour-public-master/bin/xvmol2ja
 @GETMEM-I,  Allocated     762 MB of main memory.
 @CHECKOUT-I, Total execution time (CPU/WALL):        0.00/       0.00 seconds.
--executable xvmol2ja finished with status     0 in        0.59 seconds (walltime).
 --invoking executable--
/work/umbilias/work/software/cfour/cfour_v2.1_openmpi1.8.4_Intel14/cfour-public-master/bin/xvscf
  There are   39 functions in the AO basis.

  There are 4 irreducible representations.

       Irrep        # of functions
         1                 20
         2                  6
         3                 11
         4                  2


  Parameters for SCF calculation: 
        SCF reference function:  RHF  
  Maximum number of iterations:  150
     Full symmetry point group: C2v 
     Computational point group: C2v 
        Initial density matrix: MOREAD                 
     SCF convergence tolerance: 10**(-12)
  DIIS convergence acceleration:  ON
          Latest start for DIIS:   8
                     DIIS order:   6

  Memory information:      95903 words required.
  Fock matrices are constructed from AO integral file.
 @GETMEM-I,  Allocated       0 MB of main memory.
  Initialization and symmetry analysis required      0.192 seconds.

  @INITGES-I, Occupancies from core Hamiltonian:

          Alpha population by irrep:   3    1    1    0
           Beta population by irrep:   3    1    1    0


 total no. of electrons in initial guess :  0.000000000000000E+000
  --------------------------------------------------------------------
  Iteration         Total Energy            Largest Density Difference
  --------------------------------------------------------------------
       0             9.187331653302877              0.0000000000D+00
   current occupation vector 
     3  1  1  0
     3  1  1  0
       1           -60.403256163144192              0.2502273827D+01
   current occupation vector 
     3  1  1  0
     3  1  1  0
       2           -67.500137120866910              0.5951202656D+01
   current occupation vector 
     3  0  2  0
     3  0  2  0
       3           -72.121870242169038              0.5948533001D+01
   current occupation vector 
     3  1  1  0
     3  1  1  0
       4           -71.067352751191564              0.5415438873D+01
   current occupation vector 
     3  0  2  0
     3  0  2  0
       5           -73.493510280455908              0.5412340024D+01
   current occupation vector 
     3  1  1  0
     3  1  1  0
       6           -74.652228347790910              0.1692945785D+01
   current occupation vector 
     3  1  1  0
     3  1  1  0
       7           -75.460509708986237              0.1448957473D+01
   current occupation vector 
     3  1  1  0
     3  1  1  0
       8           -75.844651443211603              0.4910362172D+00
   current occupation vector 
     3  1  1  0
     3  1  1  0
       9           -76.074414921592421              0.2506899167D+00
   current occupation vector 
     3  1  1  0
     3  1  1  0
      10           -76.075224136934494              0.1052899657D-01
   current occupation vector 
     3  1  1  0
     3  1  1  0
      11           -76.075266853658960              0.2524308175D-02
   current occupation vector 
     3  1  1  0
     3  1  1  0
      12           -76.075269447611987              0.9429088590D-03
   current occupation vector 
     3  1  1  0
     3  1  1  0
      13           -76.075269540540191              0.1680103826D-03
   current occupation vector 
     3  1  1  0
     3  1  1  0
      14           -76.075269541475734              0.2323023510D-04
   current occupation vector 
     3  1  1  0
     3  1  1  0
      15           -76.075269541524122              0.6488149414D-05
   current occupation vector 
     3  1  1  0
     3  1  1  0
      16           -76.075269541526168              0.7972291297D-06
   current occupation vector 
     3  1  1  0
     3  1  1  0
      17           -76.075269541526382              0.2009399104D-06
   current occupation vector 
     3  1  1  0
     3  1  1  0
      18           -76.075269541526026              0.1137655337D-07
   current occupation vector 
     3  1  1  0
     3  1  1  0
      19           -76.075269541526012              0.3018293393D-08
   current occupation vector 
     3  1  1  0
     3  1  1  0
      20           -76.075269541525628              0.5869291164D-09
   current occupation vector 
     3  1  1  0
     3  1  1  0
      21           -76.075269541526168              0.1266514671D-09
   current occupation vector 
     3  1  1  0
     3  1  1  0
      22           -76.075269541526026              0.2221522966D-10
   current occupation vector 
     3  1  1  0
     3  1  1  0
      23           -76.075269541526154              0.5565659045D-11
   current occupation vector 
     3  1  1  0
     3  1  1  0

  SCF has converged.

 Density matrix saved to file den.dat
 total electron number:   10.0000000000000     
     E(SCF)=       -76.075269541526140              0.5168504513D-12

  Eigenvector printing suppressed.

 @PUTMOS-I, Writing converged MOs to NEWMOS. 
 @PUTMOS-I, Symmetry   1 Full Blocks  5 Partial Blocksize   0
 @PUTMOS-I, Symmetry   2 Full Blocks  1 Partial Blocksize   2
 @PUTMOS-I, Symmetry   3 Full Blocks  2 Partial Blocksize   3
 @PUTMOS-I, Symmetry   4 Full Blocks  0 Partial Blocksize   2
 @PUTFOCK-I, Writing converged Fock matrix to NEWFOCK. 
 @PUTFOCK-I, Symmetry   1 Full Blocks  5 Partial Blocksize   0
 @PUTFOCK-I, Symmetry   2 Full Blocks  1 Partial Blocksize   2
 @PUTFOCK-I, Symmetry   3 Full Blocks  2 Partial Blocksize   3
 @PUTFOCK-I, Symmetry   4 Full Blocks  0 Partial Blocksize   2


 
  ORBITAL EIGENVALUES (ALPHA)  (1H = 27.2113834 eV)

       MO #        E(hartree)               E(eV)           FULLSYM    COMPSYM
       ----   --------------------   --------------------   -------   ---------
    1     1         -20.5573389599        -559.3936321205      A1        A1 (1)
    2     2          -1.3387827197         -36.4301298755      A1        A1 (1)
    3    27          -0.7000694678         -19.0498586951      B2        B2 (3)
    4     3          -0.5667757641         -15.4227526198      A1        A1 (1)
    5    21          -0.4935119430         -13.4291426939      B1        B1 (2)
  +++++++++++++++++++++++++++++++++++++++++++++++++++++++++++++++++++++++++++++
    6     4           0.1891660666           5.1474703635      A1        A1 (1)
    7    28           0.2536938998           6.9033619748      B2        B2 (3)
    8    29           0.6687737760          18.1982596264      B2        B2 (3)
    9     5           0.7465056585          20.3134516842      A1        A1 (1)
   10     6           1.0817722881          29.4365204843      A1        A1 (1)
   11    22           1.1254432596          30.6248680329      B1        B1 (2)
   12    30           1.2156939321          33.0807136848      B2        B2 (3)
   13     7           1.5474668774          42.1087145009      A1        A1 (1)
   14    38           1.5982441028          43.4904330468      A2        A2 (4)
   15    23           1.8084744575          49.2110918313      B1        B1 (2)
   16     8           1.9465961780          52.9695749236      A1        A1 (1)
   17    31           2.0360308299          55.4032155271      B2        B2 (3)
   18    32           2.4432796566          66.4850194900      B2        B2 (3)
   19     9           2.5646484823          69.7876331381      A1        A1 (1)
   20    10           3.2937018337          89.6261834026      A1        A1 (1)
   21    24           3.3294450833          90.5988066702      B1        B1 (2)
   22    39           3.3875360795          92.1795430401      A2        A2 (4)
   23    33           3.4098632765          92.7870969590      B2        B2 (3)
   24    11           3.5956304904          97.8420798397      A1        A1 (1)
   25    12           3.9396208939         107.2025345944      A1        A1 (1)
   26    34           4.2267262901         115.0150696077      B2        B2 (3)
   27    25           6.1312058156         166.8385921532      B1        B1 (2)
   28    13           6.6341041466         180.5231514478      A1        A1 (1)
   29    35           6.9170472594         188.2224249703      B2        B2 (3)
   30    14          19.7880910200         538.4613314990      A1        A1 (1)
   31    15          22.2051343748         604.2324249222      A1        A1 (1)
   32    36          22.3603351036         608.4556514566      B2        B2 (3)
   33    26          33.4222651093         909.4660699850      B1        B1 (2)
   34    16          33.6858347342         916.6381641026      A1        A1 (1)
   35    37          33.8557073737         921.2606336253      B2        B2 (3)
   36    17         106.7296315057        2904.2609230424      A1        A1 (1)
   37    18         452.8868288194       12323.6771358148      A1        A1 (1)
   38    19        1965.1755770155       53475.1460744847      A1        A1 (1)
   39    20        9869.8801166104      268573.0919651231      A1        A1 (1)


  VSCF finished.

 @CHECKOUT-I, Total execution time (CPU/WALL):        0.06/       0.06 seconds.
--executable xvscf finished with status     0 in        0.65 seconds (walltime).
 --invoking executable--
/work/umbilias/work/software/cfour/cfour_v2.1_openmpi1.8.4_Intel14/cfour-public-master/bin/xvtran
 @GETMEM-I,  Allocated     762 MB of main memory.
  Full RHF integral transformation
 ! shown number of AO integrals not right ! (in parallel version)
  Transformation of IIII integrals :
  1 pass through the AO integral file was required.
       19852 AO integrals were read.
       24603 MO integrals were written to HF2.
  Transformation of IIJJ integrals :
  1 pass through the AO integral file was required.
       18409 AO integrals were read.
       20547 MO integrals were written to HF2.
  Transformation of IJIJ integrals :
  1 pass through the AO integral file was required.
       31145 AO integrals were read.
       34932 MO integrals were written to HF2.
  Transformation of IJKL integrals :
  1 pass through the AO integral file was required.
        7362 AO integrals were read.
        7920 MO integrals were written to HF2.
  Summary of active molecular orbitals: 
------------------------------------------------------------------------
 
  Index      Eigenvalue    Symmetry    Index      Eigenvalue    Symmetry
------------------------------------------------------------------------
     1       -20.5573390        1        21      1965.1755770        1
     2        -1.3387827        1        22      9869.8801166        1
     3        -0.5667758        1        23         1.1254433        2
     4        -0.4935119        2        24         1.8084745        2
     5        -0.7000695        3        25         3.3294451        2
     6         0.1891661        1        26         6.1312058        2
     7         0.7465057        1        27        33.4222651        2
     8         1.0817723        1        28         0.2536939        3
     9         1.5474669        1        29         0.6687738        3
    10         1.9465962        1        30         1.2156939        3
    11         2.5646485        1        31         2.0360308        3
    12         3.2937018        1        32         2.4432797        3
    13         3.5956305        1        33         3.4098633        3
    14         3.9396209        1        34         4.2267263        3
    15         6.6341041        1        35         6.9170473        3
    16        19.7880910        1        36        22.3603351        3
    17        22.2051344        1        37        33.8557074        3
    18        33.6858347        1        38         1.5982441        4
    19       106.7296315        1        39         3.3875361        4
    20       452.8868288        1
------------------------------------------------------------------------
  -20.5573389598580       -1.33878271971470      -0.566775764136710     
 -0.493511943017293      -0.700069467807277       0.189166066560635     
  0.746505658516484        1.08177228814793        1.54746687744351     
   1.94659617796730        2.56464848230050        3.29370183371685     
   3.59563049042622        3.93962089389279        6.63410414656668     
   19.7880910199872        22.2051343748373        33.6858347342443     
   106.729631505704        452.886828819399        1965.17557701549     
   9869.88011661043        1.12544325963476        1.80847445746988     
   3.32944508327221        6.13120581562277        33.4222651092785     
  0.253693899839927       0.668773775994127        1.21569393214883     
   2.03603082991773        2.44327965663233        3.40986327652155     
   4.22672629013331        6.91704725935585        22.3603351036010     
   33.8557073737497        1.59824410275153        3.38753607948061     
 @CHECKOUT-I, Total execution time (CPU/WALL):        0.03/       0.04 seconds.
--executable xvtran finished with status     0 in        0.61 seconds (walltime).
 --invoking executable--
/work/umbilias/work/software/cfour/cfour_v2.1_openmpi1.8.4_Intel14/cfour-public-master/bin/xintprc
 @GETMEM-I,  Allocated     762 MB of main memory.
  @GMOIAA-I, Processing MO integrals for spin case AA.
  @GMOIAA-I, Generation of integral list completed.
                      TYPE                NUMBER
                      ----               --------
                      PPPP                 51076
                      PPPH                 29070
                      PPHH                  4262
                      PHPH                  2747
                      PHHH                   798
                      HHHH                    49

                     TOTAL                 88002

  @FORMT2-I, Second-order MP correlation energies:
            ------------------------------------------------
            E(SCF)                  =    -76.075269541526 a.u.
            E2(AA)                  =     -0.029638989076 a.u.
            E2(AB)                  =     -0.197759209115 a.u.
            E2(TOT)                 =     -0.257037187268 a.u.
            Total MP2 energy        =    -76.332306728794 a.u.
            ------------------------------------------------
   Largest T2 amplitudes for spin case AB:
       _       _                 _       _                 _       _
   i   j   a   b             i   j   a   b             i   j   a   b
-----------------------------------------------------------------------------
[  4   4  23  23]-0.04452 [  3   3   8   8]-0.03571 [  4   3  23   8]-0.03027
[  3   4   8  23]-0.03027 [  5   5  29  29]-0.02623 [  5   5  28  28]-0.02572
[  5   4  30  23]-0.02403 [  4   5  23  30]-0.02403 [  5   5  30  30]-0.02354
[  5   5   7   7]-0.02267 [  5   4  28  23]-0.02264 [  4   5  23  28]-0.02264
[  3   3  29  29]-0.02163 [  5   3  30   8]-0.02111 [  3   5   8  30]-0.02111
-----------------------------------------------------------------------------
   Norm of T2AB vector (     8354 symmetry allowed elements):  0.1959826356.
-----------------------------------------------------------------------------
 @CHECKOUT-I, Total execution time (CPU/WALL):        0.03/       0.03 seconds.
--executable xintprc finished with status     0 in        0.62 seconds (walltime).
  calling xvcc 
 --invoking executable--
/work/umbilias/work/software/cfour/cfour_v2.1_openmpi1.8.4_Intel14/cfour-public-master/bin/xvcc
 @GETMEM-I,  Allocated     762 MB of main memory.
   CCSD(T) energy will be calculated.
   The total correlation energy is -0.257037187268 a.u.
   The total correlation energy is -0.260659301474 a.u.
  Convergence information after     1 iterations: 
  Largest element of residual vector :  0.50423261E-02.
  Largest element of DIIS residual   :  0.50423261E-02.
   The total correlation energy is -0.264654296966 a.u.
  Convergence information after     2 iterations: 
  Largest element of residual vector : -0.17293182E-02.
  Largest element of DIIS residual   : -0.19436956E-02.
   The total correlation energy is -0.265290724327 a.u.
  Convergence information after     3 iterations: 
  Largest element of residual vector :  0.68768581E-03.
  Largest element of DIIS residual   :  0.48169719E-03.
   The total correlation energy is -0.265656655495 a.u.
  Convergence information after     4 iterations: 
  Largest element of residual vector :  0.20282627E-03.
  Largest element of DIIS residual   :  0.13176230E-03.
   The total correlation energy is -0.265671189012 a.u.
  Convergence information after     5 iterations: 
  Largest element of residual vector :  0.95514084E-04.
  Largest element of DIIS residual   :  0.68057063E-04.
   The total correlation energy is -0.265672240412 a.u.
  Convergence information after     6 iterations: 
  Largest element of residual vector :  0.38163150E-04.
  Largest element of DIIS residual   :  0.20899261E-04.
   The total correlation energy is -0.265672085160 a.u.
  Convergence information after     7 iterations: 
  Largest element of residual vector :  0.13388137E-04.
  Largest element of DIIS residual   :  0.41775367E-05.
   The total correlation energy is -0.265672104614 a.u.
  Convergence information after     8 iterations: 
  Largest element of residual vector :  0.22805022E-05.
  Largest element of DIIS residual   :  0.69063930E-06.
   The total correlation energy is -0.265672112753 a.u.
  Convergence information after     9 iterations: 
  Largest element of residual vector :  0.33047176E-06.
  Largest element of DIIS residual   : -0.15401304E-06.
   The total correlation energy is -0.265672083937 a.u.
  Convergence information after    10 iterations: 
  Largest element of residual vector :  0.71834271E-07.
  Largest element of DIIS residual   :  0.42814486E-07.
   The total correlation energy is -0.265672083368 a.u.
  Convergence information after    11 iterations: 
  Largest element of residual vector : -0.10303984E-07.
  Largest element of DIIS residual   : -0.99164471E-08.
   The total correlation energy is -0.265672082000 a.u.
  Convergence information after    12 iterations: 
  Largest element of residual vector :  0.31478401E-08.
  Largest element of DIIS residual   :  0.22527900E-08.
   The total correlation energy is -0.265672081870 a.u.
  Convergence information after    13 iterations: 
  Largest element of residual vector :  0.91730984E-09.
  Largest element of DIIS residual   :  0.74176179E-09.
   The total correlation energy is -0.265672081862 a.u.
  Convergence information after    14 iterations: 
  Largest element of residual vector :  0.63609669E-09.
  Largest element of DIIS residual   :  0.43088236E-09.
   The total correlation energy is -0.265672081852 a.u.
  Convergence information after    15 iterations: 
  Largest element of residual vector :  0.24876497E-09.
  Largest element of DIIS residual   :  0.95306596E-10.
   The total correlation energy is -0.265672081858 a.u.
  Convergence information after    16 iterations: 
  Largest element of residual vector :  0.59176338E-10.
  Largest element of DIIS residual   : -0.12708143E-10.
   The total correlation energy is -0.265672081860 a.u.
  Convergence information after    17 iterations: 
  Largest element of residual vector :  0.11564048E-10.
  Largest element of DIIS residual   :  0.37221912E-11.
   The total correlation energy is -0.265672081861 a.u.
  Convergence information after    18 iterations: 
  Largest element of residual vector :  0.10866681E-11.
  Largest element of DIIS residual   : -0.11354542E-11.
   The total correlation energy is -0.265672081861 a.u.
  Convergence information after    19 iterations: 
  Largest element of residual vector :  0.41458070E-12.
  Largest element of DIIS residual   :  0.24823287E-12.
  Amplitude equations converged in    19iterations.
   The total correlation energy is -0.265672081861 a.u.
   The CC iterations have converged.

   Largest T1 amplitudes for spin case AA:
   i       a                 i       a                 i       a    
-----------------------------------------------------------------------------
[  3       6    ] 0.00641 [  5      32    ] 0.00581 [  5      30    ] 0.00531
[  5      28    ]-0.00465 [  2       8    ]-0.00416 [  3      11    ]-0.00413
[  4      26    ] 0.00348 [  5      35    ] 0.00342 [  3      15    ] 0.00327
[  2       6    ]-0.00297 [  3       7    ] 0.00284 [  5      33    ] 0.00281
[  3       9    ] 0.00256 [  4      24    ]-0.00254 [  2      11    ] 0.00241
-----------------------------------------------------------------------------
   Norm of T1AA vector (       66 symmetry allowed elements):  0.0161790663.
-----------------------------------------------------------------------------
   Largest T2 amplitudes for spin case AB:
       _       _                 _       _                 _       _
   i   j   a   b             i   j   a   b             i   j   a   b
-----------------------------------------------------------------------------
[  4   4  23  23]-0.04839 [  3   3   8   8]-0.03851 [  5   5  29  29]-0.03121
[  4   3  23   8]-0.02938 [  3   4   8  23]-0.02938 [  5   5  28  28]-0.02831
[  5   5   7   7]-0.02690 [  3   3  29  29]-0.02530 [  5   5  30  30]-0.02468
[  5   4  30  23]-0.02345 [  4   5  23  30]-0.02345 [  5   5  30  28]-0.02148
[  5   5  28  30]-0.02148 [  5   4  28  23]-0.02129 [  4   5  23  28]-0.02129
-----------------------------------------------------------------------------
   Norm of T2AB vector (     8354 symmetry allowed elements):  0.2164269508.
-----------------------------------------------------------------------------
       Summary of iterative solution of CC equations 
      -----------------------------------------------------------
                       Correlation           Total
       Iteration         Energy              Energy
      -----------------------------------------------------------
            0        -0.257037187268     -76.332306728794  DIIS 
            1        -0.260659301474     -76.335928843000  DIIS 
            2        -0.264654296966     -76.339923838492  DIIS 
            3        -0.265290724327     -76.340560265853  DIIS 
            4        -0.265656655495     -76.340926197021  DIIS 
            5        -0.265671189012     -76.340940730538  DIIS 
            6        -0.265672240412     -76.340941781938  DIIS 
            7        -0.265672085160     -76.340941626686  DIIS 
            8        -0.265672104614     -76.340941646140  DIIS 
            9        -0.265672112753     -76.340941654279  DIIS 
           10        -0.265672083937     -76.340941625463  DIIS 
           11        -0.265672083368     -76.340941624894  DIIS 
           12        -0.265672082000     -76.340941623526  DIIS 
           13        -0.265672081870     -76.340941623396  DIIS 
           14        -0.265672081862     -76.340941623388  DIIS 
           15        -0.265672081852     -76.340941623378  DIIS 
           16        -0.265672081858     -76.340941623384  DIIS 
           17        -0.265672081860     -76.340941623386  DIIS 
           18        -0.265672081861     -76.340941623387  DIIS 
           19        -0.265672081861     -76.340941623387  DIIS 
      -----------------------------------------------------------
      A miracle has come to pass. The CC iterations have converged.
jtime: -------------------------------------------------------------
jtime:      0.136     0.136     0.000{    0} <<       (T) >>
        E(CCSD)           =     -76.340941623387
        E(CCSD + T(CCSD)) =     -76.345801979616
        E(CCSD(T))        =     -76.345680992058
 @CHECKOUT-I, Total execution time (CPU/WALL):        0.47/       0.47 seconds.
--executable xvcc finished with status     0 in        1.01 seconds (walltime).
 --invoking executable--
/work/umbilias/work/software/cfour/cfour_v2.1_openmpi1.8.4_Intel14/cfour-public-master/bin/xlambda
 @GETMEM-I,  Allocated     762 MB of main memory.
 The Lambda equations are solved for CCSD(T).
  Initial lambda amplitudes: 
  Convergence information after     1 iterations: 
  Largest element of residual vector : -0.28439363E-02.
  Largest element of DIIS residual   : -0.28439363E-02.
  Convergence information after     2 iterations: 
  Largest element of residual vector : -0.64385834E-03.
  Largest element of DIIS residual   : -0.58512131E-03.
  Convergence information after     3 iterations: 
  Largest element of residual vector : -0.26410746E-03.
  Largest element of DIIS residual   :  0.11305383E-03.
  Convergence information after     4 iterations: 
  Largest element of residual vector :  0.10451882E-03.
  Largest element of DIIS residual   :  0.77714453E-04.
  Convergence information after     5 iterations: 
  Largest element of residual vector :  0.46553019E-04.
  Largest element of DIIS residual   :  0.21867072E-04.
  Convergence information after     6 iterations: 
  Largest element of residual vector :  0.16002024E-04.
  Largest element of DIIS residual   :  0.51154881E-05.
  Convergence information after     7 iterations: 
  Largest element of residual vector :  0.39397299E-05.
  Largest element of DIIS residual   :  0.11487748E-05.
  Convergence information after     8 iterations: 
  Largest element of residual vector :  0.50991984E-06.
  Largest element of DIIS residual   : -0.17829398E-06.
  Convergence information after     9 iterations: 
  Largest element of residual vector :  0.81569314E-07.
  Largest element of DIIS residual   : -0.53291952E-07.
  Convergence information after    10 iterations: 
  Largest element of residual vector : -0.25315353E-07.
  Largest element of DIIS residual   :  0.14086170E-07.
  Convergence information after    11 iterations: 
  Largest element of residual vector :  0.85910563E-08.
  Largest element of DIIS residual   :  0.68139645E-08.
  Convergence information after    12 iterations: 
  Largest element of residual vector :  0.46130217E-08.
  Largest element of DIIS residual   :  0.33687061E-08.
  Convergence information after    13 iterations: 
  Largest element of residual vector :  0.22052264E-08.
  Largest element of DIIS residual   :  0.15136780E-08.
  Convergence information after    14 iterations: 
  Largest element of residual vector :  0.10196837E-08.
  Largest element of DIIS residual   :  0.30162028E-09.
  Convergence information after    15 iterations: 
  Largest element of residual vector :  0.19817822E-09.
  Largest element of DIIS residual   :  0.73463887E-10.
  Convergence information after    16 iterations: 
  Largest element of residual vector :  0.45854071E-10.
  Largest element of DIIS residual   :  0.26332869E-10.
  Convergence information after    17 iterations: 
  Largest element of residual vector :  0.13543362E-10.
  Largest element of DIIS residual   : -0.56625108E-11.
  Convergence information after    18 iterations: 
  Largest element of residual vector : -0.31253628E-11.
  Largest element of DIIS residual   :  0.22726585E-11.
  Convergence information after    19 iterations: 
  Largest element of residual vector :  0.13013592E-11.
  Largest element of DIIS residual   :  0.91518232E-12.
  Amplitude equations converged in    19 iterations.
      The lambda equations have converged.
 @CHECKOUT-I, Total execution time (CPU/WALL):        0.26/       0.26 seconds.
--executable xlambda finished with status     0 in        0.81 seconds (walltime).
 --invoking executable--
/work/umbilias/work/software/cfour/cfour_v2.1_openmpi1.8.4_Intel14/cfour-public-master/bin/xdens
 @GETMEM-I,  Allocated     762 MB of main memory.
  CCSD(T) density and intermediates are calculated.
  The perturbed orbitals are chosen canonical.
  The iterative expansion of D(ai) converged after  16 iterations.
  ----------------------------------------------------------------------
                 Natural orbital occupation numbers
  ----------------------------------------------------------------------
  1.99908  1.98338  1.97166  1.96493  1.96213  0.02801  0.02587  0.01739
  0.01191  0.00633  0.00598  0.00521  0.00468  0.00446  0.00132  0.00129
  0.00096  0.00095  0.00077  0.00061  0.00057  0.00054  0.00052  0.00039
  0.00024  0.00023  0.00013  0.00011  0.00009  0.00008  0.00006  0.00006
  0.00004  0.00001  0.00000  0.00000  0.00000  0.00000  0.00000
  Trace of density matrix :  10.0000000000.
  ----------------------------------------------------------------------
  Density calculation successfully completed.
 @CHECKOUT-I, Total execution time (CPU/WALL):        0.05/       0.05 seconds.
--executable xdens finished with status     0 in        0.61 seconds (walltime).
 --invoking executable--
/work/umbilias/work/software/cfour/cfour_v2.1_openmpi1.8.4_Intel14/cfour-public-master/bin/xanti
 @GETMEM-I,  Allocated     762 MB of main memory.
 CCSD(T) MO gammas will be sorted to Mulliken order.
 @CHECKOUT-I, Total execution time (CPU/WALL):        0.03/       0.03 seconds.
--executable xanti finished with status     0 in        0.60 seconds (walltime).
 --invoking executable--
/work/umbilias/work/software/cfour/cfour_v2.1_openmpi1.8.4_Intel14/cfour-public-master/bin/xbcktrn
 @GETMEM-I,  Allocated     762 MB of main memory.
 @CHECKOUT-I, Total execution time (CPU/WALL):        0.02/       0.02 seconds.
--executable xbcktrn finished with status     0 in        0.53 seconds (walltime).
 --invoking executable--
/work/umbilias/work/software/cfour/cfour_v2.1_openmpi1.8.4_Intel14/cfour-public-master/bin/xvdint
 @GETMEM-I,  Allocated     762 MB of main memory.
 One- and two-electron integral derivatives are calculated
 for RHF-CC/MBPT gradients and dipole moments.
 Spherical gaussians are used.

                     Kinetic energy integral gradient
                     --------------------------------

                         O #1 z    -0.8268311582
                         H #2 y     1.0925498840
                         H #2 z     0.8268311582


 O #1       0.0000000000            0.0000000000           -0.8268311582
 H #2 1     0.0000000000            0.5462749420            0.4134155791
 H #2 2     0.0000000000           -0.5462749420            0.4134155791



                   Nuclear attraction integral gradient
                   ------------------------------------

                         O #1 z     7.8974957238
                         H #2 y   -10.3827251292
                         H #2 z    -7.8974957238


 O #1       0.0000000000            0.0000000000            7.8974957238
 H #2 1     0.0000000000           -5.1913625646           -3.9487478619
 H #2 2     0.0000000000            5.1913625646           -3.9487478619



                      Reorthonormalization gradient
                      -----------------------------

                         O #1 z    -0.4127194043
                         H #2 y     0.4795846595
                         H #2 z     0.4127194043


 O #1       0.0000000000            0.0000000000           -0.4127194043
 H #2 1     0.0000000000            0.2397923298            0.2063597022
 H #2 2     0.0000000000           -0.2397923298            0.2063597022


 Evaluation of 1e integral derivatives required    0.23 seconds.
 Evaluation of 2el integral derivatives

                      Two-electron integral gradient
                      ------------------------------

                         O #1 z    -3.6725659671
                         H #2 y     4.7028454191
                         H #2 z     3.6725659671


 O #1       0.0000000000            0.0000000000           -3.6725659671
 H #2 1     0.0000000000            2.3514227096            1.8362829835
 H #2 2     0.0000000000           -2.3514227096            1.8362829835


 Evaluation of 2e integral derivatives required    0.11 seconds.

                            Molecular gradient
                            ------------------

                         O #1 z    -0.0032725262
                         H #2 y    -0.0038351815
                         H #2 z     0.0032725262


 O #1       0.0000000000            0.0000000000           -0.0032725262
 H #2 1     0.0000000000           -0.0019175908            0.0016362631
 H #2 2     0.0000000000            0.0019175908            0.0016362631


  Molecular gradient norm 0.601E-02

                           Total dipole moment
                           -------------------

                               au             Debye

                    z     -0.79389444     -2.01787874

  Conversion factor used: 1 a.u. =   2.54174691 Debye 


 @CHECKOUT-I, Total execution time (CPU/WALL):        0.14/       0.14 seconds.
--executable xvdint finished with status     0 in        0.63 seconds (walltime).
 --invoking executable--
/work/umbilias/work/software/cfour/cfour_v2.1_openmpi1.8.4_Intel14/cfour-public-master/bin/xjoda
  @GTFLGS-F, ABCDTYPE=AOBASIS needed for efficient parallel computations.
   JODA beginning optimization cycle #  1.
 OriVec is   0.000000000000000E+000  -1.00000000000000     
  3.878017413853397E-016                    -2
  igrd and ihes are                      0                     0
  gradient from JOBARC 
   0.000000000000000   0.000000000000000  -0.003272526161035
   0.000000000000000  -0.001917590769357   0.001636263080514
   0.000000000000000   0.001917590769357   0.001636263080514
 
   Internal coordinate energy gradients (atomic units): 
                     R                 dV/dR
 [R    ]    1.810358006799614    0.000514470495463
 [R    ]    1.810358006799614    0.000514470495463
 [A    ]    1.823869068334074    0.004467526110763
                     0                     0                     0 ****
   Optimization cycle  1.  Updating structure with Newton-Raphson step.
  @EFOL-I, Current internal coordinate Hessian written to FCMINT.
   There are   2 independent internal coordinates which will be optimized.
   Hessian matrix in totally symmetric symmetry coordinates: 
              R         A    
  R          1.000000  0.000000
  A          0.000000  0.250000
   The eigenvectors of the Hessian matrix: 
                   1         2
  R          0.000000  1.000000
  A          1.000000  0.000000
   The eigenvalues of the Hessian matrix: 
     0.25000    1.00000
   Gradients along Hessian eigenvectors: 
     0.00447    0.00073
   There are  0 negative eigenvalues.
   Summary of Optimization Cycle: 
   The maximum unscaled step is:    0.01788.
   Scale factor set to:  1.00000.
   Forces are in hartree/bohr and hartree/radian.
   Parameter values are in Angstroms and degrees.
--------------------------------------------------------------------------
  Parameter     dV/dR           Step          Rold            Rnew
--------------------------------------------------------------------------
    R       0.0005144705   -0.0002722461    0.9580001961    0.9577279500
    A       0.0044675261   -1.0238815640  104.5000000000  103.4761184360
--------------------------------------------------------------------------
  Minimum force:  0.000514470 / RMS force:  0.003179895
 Updating structure...
   Rotational constants (in cm-1): 
          9.5268147457            14.7893839686            26.7731815593
   Rotational constants (in MHz): 
     285606.7609657911        443374.6393408466        802639.9032601585


 ----------------------------------------------------------------
         Coordinates used in calculation (QCOMP) 
 ----------------------------------------------------------------
 Z-matrix   Atomic            Coordinates (in bohr)
  Symbol    Number           X              Y              Z
 ----------------------------------------------------------------
     O         8         0.00000000    -0.00000000     0.12542964
     H         1        -0.00000000    -1.42106723    -0.99532972
     H         1        -0.00000000     1.42106723    -0.99532972
 ----------------------------------------------------------------
 
   Interatomic distance matrix (Angstroms) 
 
                 O             H             H    
                [ 1]        [ 2]        [ 3]
  O    [ 1]     0.00000
  H    [ 2]     0.95773     0.00000
  H    [ 3]     0.95773     1.50399     0.00000
 rotcon2
   Rotational constants (in cm-1): 
          9.5268147457            26.7731815593            14.7893839686
   Rotational constants (in MHz): 
     285606.7609657911        802639.9032601581        443374.6393408467
  @GTFLGS-F, ABCDTYPE=AOBASIS needed for efficient parallel computations.
  Uncontracted basis dzp        is used.
  Uncontracted basis dzp        is used.
  Uncontracted basis dzp        is used.
  Uncontracted basis dzp        is used.
  There are   39 basis functions.
 @CHECKOUT-I, Total execution time (CPU/WALL):        0.02/       0.03 seconds.
--executable xjoda finished with status     0 in        0.54 seconds (walltime).
 --invoking executable--
/work/umbilias/work/software/cfour/cfour_v2.1_openmpi1.8.4_Intel14/cfour-public-master/bin/xvmol
 PARALLEL VERSION OF MOLECULE STARTED ON NODE            0 :
********************************************************************************
                    INPUT FROM MOL FILE
********************************************************************************
INTGRL        1    0    1    0    0    0    0    0    0                         
         *** CFOUR Program System (Release V0.1) ***                            
Geometry optimization of H2O at CCSD(T) level (from the cfour web)              
    2    2 X  Y       0.10E-08              0    0                              
   9999.00      3.00                                                            
          8.00000000    1    3    3    2    1                                   
O #1   0.000000000000000  -0.000000000000000   0.125429642637037                
    5    5                                                                      
   6773.37470000000        1.00000000000000       0.000000000000000E+000        
  0.000000000000000E+000  0.000000000000000E+000  0.000000000000000E+000        
   1016.79700000000       0.000000000000000E+000   1.00000000000000             
  0.000000000000000E+000  0.000000000000000E+000  0.000000000000000E+000        
   231.267380000000       0.000000000000000E+000  0.000000000000000E+000        
   1.00000000000000       0.000000000000000E+000  0.000000000000000E+000        
   65.0084540000000       0.000000000000000E+000  0.000000000000000E+000        
  0.000000000000000E+000   1.00000000000000       0.000000000000000E+000        
   20.4998080000000       0.000000000000000E+000  0.000000000000000E+000        
  0.000000000000000E+000  0.000000000000000E+000   1.00000000000000             
    2    2                                                                      
   6.71606640000000        1.00000000000000       0.000000000000000E+000        
   1.14715720000000       0.000000000000000E+000   1.00000000000000             
    1    1                                                                      
  0.334232500000000        1.00000000000000                                     
    3    3                                                                      
   17.6942640000000        1.00000000000000       0.000000000000000E+000        
  0.000000000000000E+000                                                        
   3.85360270000000       0.000000000000000E+000   1.00000000000000             
  0.000000000000000E+000                                                        
   1.04674650000000       0.000000000000000E+000  0.000000000000000E+000        
   1.00000000000000                                                             
    1    1                                                                      
  0.275860400000000        1.00000000000000                                     
    1    1                                                                      
   1.20000000000000        1.00000000000000                                     
          1.00000000    1    2    1    1                                        
H #2  -0.000000000000000  -1.421067229233770  -0.995329723105569                
    4    4                                                                      
   13.0107010000000        1.00000000000000       0.000000000000000E+000        
  0.000000000000000E+000  0.000000000000000E+000                                
   1.96225720000000       0.000000000000000E+000   1.00000000000000             
  0.000000000000000E+000  0.000000000000000E+000                                
  0.444538000000000       0.000000000000000E+000  0.000000000000000E+000        
   1.00000000000000       0.000000000000000E+000                                
  0.121949600000000       0.000000000000000E+000  0.000000000000000E+000        
  0.000000000000000E+000   1.00000000000000                                     
    1    1                                                                      
  0.800000000000000        1.00000000000000                                     
FINISH                                                                          
 
********************************************************************************

Running with 1 threads/proc

 ONE- AND TWO-ELECTRON INTEGRALS OVER SYMMETRY-ADAPTED AOS ARE CALCULATED.

  SPHERICAL HARMONICS ARE USED.
  
  INTEGRALS LESS THAN  0.10E-13 ARE NEGLECTED.

  NUCLEAR REPULSION ENERGY :    9.1923914552 A.U.
  @MOLECU-I, ONE ELECTRON INTEGRALS (CPU/WALL):        0.00/       0.00 SECONDS.
  @TWOEL-I,      19854 INTEGRALS OF SYMMETRY TYPE  I I I I
  @TWOEL-I,      31146 INTEGRALS OF SYMMETRY TYPE  I J I J
  @TWOEL-I,      18409 INTEGRALS OF SYMMETRY TYPE  I I J J
  @TWOEL-I,       7362 INTEGRALS OF SYMMETRY TYPE  I J K L
  @TWOEL-I, TOTAL NUMBER OF 2-E INTEGRALS      76771.
  @MOLECU-I, TWO ELECTRON INTEGRALS (CPU/WALL):        0.06/       0.06 SECONDS.
 @CHECKOUT-I, Total execution time (CPU/WALL):        0.07/       0.07 seconds.
--executable xvmol finished with status     0 in        0.62 seconds (walltime).
 --invoking executable--
/work/umbilias/work/software/cfour/cfour_v2.1_openmpi1.8.4_Intel14/cfour-public-master/bin/xvmol2ja
 @GETMEM-I,  Allocated     762 MB of main memory.
 @CHECKOUT-I, Total execution time (CPU/WALL):        0.00/       0.00 seconds.
--executable xvmol2ja finished with status     0 in        0.59 seconds (walltime).
  a 
 --invoking executable--
/work/umbilias/work/software/cfour/cfour_v2.1_openmpi1.8.4_Intel14/cfour-public-master/bin/xvdint
 @GETMEM-I,  Allocated     762 MB of main memory.
 One- and two-electron integral derivatives are calculated
 for RHF-CC/MBPT gradients and dipole moments.
 Spherical gaussians are used.
 Evaluated one-electron integrals:   dipole integrals
  keyword missing for gradient integrals in sfree
  pVp integrals for spin-free DHF
  derivative pVp integrals for spin-free DHF
 Evaluation of 1e integral derivatives required    0.47 seconds.
 Evaluation of 2e integral derivatives required    0.00 seconds.


 @CHECKOUT-I, Total execution time (CPU/WALL):        0.27/       0.27 seconds.
--executable xvdint finished with status     0 in        0.83 seconds (walltime).
 --invoking executable--
/work/umbilias/work/software/cfour/cfour_v2.1_openmpi1.8.4_Intel14/cfour-public-master/bin/xvpropx2c
 @GETMEM-I,  Allocated     762 MB of main memory.
 generating sfx2c-1e gradient integrals
 end generating sfx2c-1e gradient integrals
 @CHECKOUT-I, Total execution time (CPU/WALL):        0.09/       0.09 seconds.
--executable xvpropx2c finished with status     0 in        0.61 seconds (walltime).
 --invoking executable--
/work/umbilias/work/software/cfour/cfour_v2.1_openmpi1.8.4_Intel14/cfour-public-master/bin/xvmol2ja
 @GETMEM-I,  Allocated     762 MB of main memory.
 @CHECKOUT-I, Total execution time (CPU/WALL):        0.00/       0.00 seconds.
--executable xvmol2ja finished with status     0 in        0.59 seconds (walltime).
 --invoking executable--
/work/umbilias/work/software/cfour/cfour_v2.1_openmpi1.8.4_Intel14/cfour-public-master/bin/xvscf
  There are   39 functions in the AO basis.

  There are 4 irreducible representations.

       Irrep        # of functions
         1                 20
         2                  6
         3                 11
         4                  2


  Parameters for SCF calculation: 
        SCF reference function:  RHF  
  Maximum number of iterations:  150
     Full symmetry point group: C2v 
     Computational point group: C2v 
        Initial density matrix: MOREAD                 
     SCF convergence tolerance: 10**(-12)
  DIIS convergence acceleration:  ON
          Latest start for DIIS:   8
                     DIIS order:   6

     Alpha population by irrep:   3    1    1    0
      Beta population by irrep:   3    1    1    0


  Memory information:      95903 words required.
  Fock matrices are constructed from AO integral file.
 @GETMEM-I,  Allocated       0 MB of main memory.
  Initialization and symmetry analysis required      0.191 seconds.

 total no. of electrons in initial guess :  0.000000000000000E+000
  --------------------------------------------------------------------
  Iteration         Total Energy            Largest Density Difference
  --------------------------------------------------------------------
       0           -76.074983323791912              0.0000000000D+00
   current occupation vector 
     3  1  1  0
     3  1  1  0
       1           -76.075233255844211              0.3571201100D-02
   current occupation vector 
     3  1  1  0
     3  1  1  0
       2           -76.075234083756726              0.5861635914D-03
   current occupation vector 
     3  1  1  0
     3  1  1  0
       3           -76.075234212526112              0.3080170795D-03
   current occupation vector 
     3  1  1  0
     3  1  1  0
       4           -76.075234237279346              0.6813621734D-04
   current occupation vector 
     3  1  1  0
     3  1  1  0
       5           -76.075234239636046              0.3631167739D-04
   current occupation vector 
     3  1  1  0
     3  1  1  0
       6           -76.075234239672881              0.2904196622D-05
   current occupation vector 
     3  1  1  0
     3  1  1  0
       7           -76.075234239673478              0.5952940911D-06
   current occupation vector 
     3  1  1  0
     3  1  1  0
       8           -76.075234239673563              0.4961965705D-07
   current occupation vector 
     3  1  1  0
     3  1  1  0
       9           -76.075234239673648              0.8152131747D-08
   current occupation vector 
     3  1  1  0
     3  1  1  0
      10           -76.075234239673620              0.2614685468D-08
   current occupation vector 
     3  1  1  0
     3  1  1  0
      11           -76.075234239673534              0.1719066001D-09
   current occupation vector 
     3  1  1  0
     3  1  1  0
      12           -76.075234239673591              0.1086315482D-09
   current occupation vector 
     3  1  1  0
     3  1  1  0
      13           -76.075234239673449              0.2652783548D-10
   current occupation vector 
     3  1  1  0
     3  1  1  0
      14           -76.075234239673591              0.3576139385D-11
   current occupation vector 
     3  1  1  0
     3  1  1  0
      15           -76.075234239673534              0.1961208973D-11
   current occupation vector 
     3  1  1  0
     3  1  1  0

  SCF has converged.

 Density matrix saved to file den.dat
 total electron number:   9.99999999999998     
     E(SCF)=       -76.075234239673563              0.3253959602D-12

  Eigenvector printing suppressed.

 @PUTMOS-I, Writing converged MOs to NEWMOS. 
 @PUTMOS-I, Symmetry   1 Full Blocks  5 Partial Blocksize   0
 @PUTMOS-I, Symmetry   2 Full Blocks  1 Partial Blocksize   2
 @PUTMOS-I, Symmetry   3 Full Blocks  2 Partial Blocksize   3
 @PUTMOS-I, Symmetry   4 Full Blocks  0 Partial Blocksize   2
 @PUTMOS-I, NEWMOS already exists and will be deleted. 
 @PUTFOCK-I, Writing converged Fock matrix to NEWFOCK. 
 @PUTFOCK-I, Symmetry   1 Full Blocks  5 Partial Blocksize   0
 @PUTFOCK-I, Symmetry   2 Full Blocks  1 Partial Blocksize   2
 @PUTFOCK-I, Symmetry   3 Full Blocks  2 Partial Blocksize   3
 @PUTFOCK-I, Symmetry   4 Full Blocks  0 Partial Blocksize   2
 @PUTFOCK-I, NEWFOCK already exists and will be deleted. 


 
  ORBITAL EIGENVALUES (ALPHA)  (1H = 27.2113834 eV)

       MO #        E(hartree)               E(eV)           FULLSYM    COMPSYM
       ----   --------------------   --------------------   -------   ---------
    1     1         -20.5578451203        -559.4074054465      A1        A1 (1)
    2     2          -1.3397507248         -36.4564706342      A1        A1 (1)
    3    27          -0.6982480809         -19.0002962366      B2        B2 (3)
    4     3          -0.5689231806         -15.4811867916      A1        A1 (1)
    5    21          -0.4939032283         -13.4397901091      B1        B1 (2)
  +++++++++++++++++++++++++++++++++++++++++++++++++++++++++++++++++++++++++++++
    6     4           0.1889442981           5.1414357380      A1        A1 (1)
    7    28           0.2538381995           6.9072885690      B2        B2 (3)
    8    29           0.6665369235          18.1373917756      B2        B2 (3)
    9     5           0.7507895862          20.4300232833      A1        A1 (1)
   10     6           1.0804295688          29.3999832324      A1        A1 (1)
   11    22           1.1252077028          30.6184582045      B1        B1 (2)
   12    30           1.2167358870          33.1090667170      B2        B2 (3)
   13     7           1.5356623400          41.7874967060      A1        A1 (1)
   14    38           1.6017282980          43.5852428190      A2        A2 (4)
   15    23           1.8027806043          49.0561542088      B1        B1 (2)
   16     8           1.9432169733          52.8776220903      A1        A1 (1)
   17    31           2.0443460245          55.6294834758      B2        B2 (3)
   18    32           2.4397429331          66.3887803504      B2        B2 (3)
   19     9           2.5667918718          69.8459577314      A1        A1 (1)
   20    10           3.2926887402          89.5986157258      A1        A1 (1)
   21    24           3.3353766634          90.7602131709      B1        B1 (2)
   22    39           3.3836439181          92.0736319446      A2        A2 (4)
   23    33           3.4151649220          92.9313620670      B2        B2 (3)
   24    11           3.5940766523          97.7997977555      A1        A1 (1)
   25    12           3.9310436665         106.9691363716      A1        A1 (1)
   26    34           4.2323991536         115.1694360707      B2        B2 (3)
[...]
   The total correlation energy is -0.265843133095 a.u.
  Convergence information after     9 iterations: 
  Largest element of residual vector :  0.34348320E-06.
  Largest element of DIIS residual   : -0.15333928E-06.
   The total correlation energy is -0.265843104438 a.u.
  Convergence information after    10 iterations: 
  Largest element of residual vector :  0.69127764E-07.
  Largest element of DIIS residual   :  0.42221697E-07.
   The total correlation energy is -0.265843103939 a.u.
  Convergence information after    11 iterations: 
  Largest element of residual vector : -0.10173751E-07.
  Largest element of DIIS residual   : -0.97722051E-08.
   The total correlation energy is -0.265843102556 a.u.
  Convergence information after    12 iterations: 
  Largest element of residual vector :  0.31582801E-08.
  Largest element of DIIS residual   :  0.22754396E-08.
   The total correlation energy is -0.265843102421 a.u.
  Convergence information after    13 iterations: 
  Largest element of residual vector :  0.88018531E-09.
  Largest element of DIIS residual   :  0.72625191E-09.
   The total correlation energy is -0.265843102410 a.u.
  Convergence information after    14 iterations: 
  Largest element of residual vector :  0.63726219E-09.
  Largest element of DIIS residual   :  0.44820052E-09.
   The total correlation energy is -0.265843102399 a.u.
  Convergence information after    15 iterations: 
  Largest element of residual vector :  0.25233994E-09.
  Largest element of DIIS residual   :  0.96903918E-10.
   The total correlation energy is -0.265843102405 a.u.
  Convergence information after    16 iterations: 
  Largest element of residual vector :  0.62831549E-10.
  Largest element of DIIS residual   : -0.12823052E-10.
   The total correlation energy is -0.265843102406 a.u.
  Convergence information after    17 iterations: 
  Largest element of residual vector :  0.11502298E-10.
  Largest element of DIIS residual   :  0.38452030E-11.
   The total correlation energy is -0.265843102407 a.u.
  Convergence information after    18 iterations: 
  Largest element of residual vector :  0.91909640E-12.
  Largest element of DIIS residual   : -0.11561373E-11.
  Amplitude equations converged in    18iterations.
   The total correlation energy is -0.265843102407 a.u.
   The CC iterations have converged.

   Largest T1 amplitudes for spin case AA:
   i       a                 i       a                 i       a    
-----------------------------------------------------------------------------
[  3       6    ] 0.00643 [  5      32    ] 0.00585 [  5      30    ] 0.00541
[  5      28    ]-0.00469 [  3      11    ]-0.00419 [  2       8    ]-0.00418
[  4      26    ] 0.00347 [  5      35    ] 0.00343 [  3      15    ] 0.00327
[  3       7    ] 0.00290 [  2       6    ]-0.00285 [  5      33    ] 0.00282
[  4      24    ]-0.00257 [  3       9    ] 0.00250 [  5      29    ]-0.00248
-----------------------------------------------------------------------------
   Norm of T1AA vector (       66 symmetry allowed elements):  0.0162550003.
-----------------------------------------------------------------------------
   Largest T2 amplitudes for spin case AB:
       _       _                 _       _                 _       _
   i   j   a   b             i   j   a   b             i   j   a   b
-----------------------------------------------------------------------------
[  4   4  23  23]-0.04838 [  3   3   8   8]-0.03814 [  5   5  29  29]-0.03145
[  4   3  23   8]-0.02924 [  3   4   8  23]-0.02924 [  5   5  28  28]-0.02866
[  5   5   7   7]-0.02629 [  3   3  29  29]-0.02539 [  5   5  30  30]-0.02472
[  5   4  30  23]-0.02351 [  4   5  23  30]-0.02351 [  5   5  30  28]-0.02162
[  5   5  28  30]-0.02162 [  5   4  28  23]-0.02136 [  4   5  23  28]-0.02136
-----------------------------------------------------------------------------
   Norm of T2AB vector (     8354 symmetry allowed elements):  0.2166422632.
-----------------------------------------------------------------------------
       Summary of iterative solution of CC equations 
      -----------------------------------------------------------
                       Correlation           Total
       Iteration         Energy              Energy
      -----------------------------------------------------------
            0        -0.257223545307     -76.332365328918  DIIS 
            1        -0.260814853469     -76.335956637080  DIIS 
            2        -0.264824122646     -76.339965906256  DIIS 
            3        -0.265459164916     -76.340600948526  DIIS 
            4        -0.265827644577     -76.340969428188  DIIS 
            5        -0.265842209566     -76.340983993176  DIIS 
            6        -0.265843251946     -76.340985035556  DIIS 
            7        -0.265843104565     -76.340984888176  DIIS 
            8        -0.265843124211     -76.340984907822  DIIS 
            9        -0.265843133095     -76.340984916705  DIIS 
           10        -0.265843104438     -76.340984888048  DIIS 
           11        -0.265843103939     -76.340984887549  DIIS 
           12        -0.265843102556     -76.340984886166  DIIS 
           13        -0.265843102421     -76.340984886031  DIIS 
           14        -0.265843102410     -76.340984886021  DIIS 
           15        -0.265843102399     -76.340984886009  DIIS 
           16        -0.265843102405     -76.340984886015  DIIS 
           17        -0.265843102406     -76.340984886017  DIIS 
           18        -0.265843102407     -76.340984886018  DIIS 
      -----------------------------------------------------------
      A miracle has come to pass. The CC iterations have converged.
jtime: -------------------------------------------------------------
jtime:      0.142     0.142     0.000{    0} <<       (T) >>
        E(CCSD)           =     -76.340984886018
        E(CCSD + T(CCSD)) =     -76.345863730158
        E(CCSD(T))        =     -76.345741909238
 @CHECKOUT-I, Total execution time (CPU/WALL):        0.45/       0.45 seconds.
--executable xvcc finished with status     0 in        1.01 seconds (walltime).
 --invoking executable--
/work/umbilias/work/software/cfour/cfour_v2.1_openmpi1.8.4_Intel14/cfour-public-master/bin/xlambda
 @GETMEM-I,  Allocated     762 MB of main memory.
 The Lambda equations are solved for CCSD(T).
  Initial lambda amplitudes: 
  Convergence information after     1 iterations: 
  Largest element of residual vector : -0.28820958E-02.
  Largest element of DIIS residual   : -0.28820958E-02.
  Convergence information after     2 iterations: 
  Largest element of residual vector : -0.64609703E-03.
  Largest element of DIIS residual   : -0.58583997E-03.
  Convergence information after     3 iterations: 
  Largest element of residual vector : -0.26399551E-03.
  Largest element of DIIS residual   :  0.11142060E-03.
  Convergence information after     4 iterations: 
  Largest element of residual vector :  0.10351323E-03.
  Largest element of DIIS residual   :  0.77084347E-04.
  Convergence information after     5 iterations: 
  Largest element of residual vector :  0.45883680E-04.
  Largest element of DIIS residual   :  0.21450713E-04.
  Convergence information after     6 iterations: 
  Largest element of residual vector :  0.15762765E-04.
  Largest element of DIIS residual   :  0.50951198E-05.
  Convergence information after     7 iterations: 
  Largest element of residual vector :  0.39115127E-05.
  Largest element of DIIS residual   :  0.11566566E-05.
  Convergence information after     8 iterations: 
  Largest element of residual vector :  0.51512171E-06.
  Largest element of DIIS residual   : -0.17611148E-06.
  Convergence information after     9 iterations: 
  Largest element of residual vector :  0.84800267E-07.
  Largest element of DIIS residual   : -0.52478233E-07.
  Convergence information after    10 iterations: 
  Largest element of residual vector : -0.24923959E-07.
  Largest element of DIIS residual   :  0.15006336E-07.
  Convergence information after    11 iterations: 
  Largest element of residual vector :  0.90777333E-08.
  Largest element of DIIS residual   :  0.67217349E-08.
  Convergence information after    12 iterations: 
  Largest element of residual vector :  0.45665635E-08.
  Largest element of DIIS residual   :  0.33617121E-08.
  Convergence information after    13 iterations: 
  Largest element of residual vector :  0.21904871E-08.
  Largest element of DIIS residual   :  0.14992167E-08.
  Convergence information after    14 iterations: 
  Largest element of residual vector :  0.10059404E-08.
  Largest element of DIIS residual   :  0.29491568E-09.
  Convergence information after    15 iterations: 
  Largest element of residual vector :  0.19434557E-09.
  Largest element of DIIS residual   :  0.75546289E-10.
  Convergence information after    16 iterations: 
  Largest element of residual vector :  0.47127783E-10.
  Largest element of DIIS residual   :  0.27399215E-10.
  Convergence information after    17 iterations: 
  Largest element of residual vector :  0.14164870E-10.
  Largest element of DIIS residual   : -0.54135060E-11.
  Convergence information after    18 iterations: 
  Largest element of residual vector : -0.29970956E-11.
  Largest element of DIIS residual   :  0.24103687E-11.
  Convergence information after    19 iterations: 
  Largest element of residual vector :  0.13749652E-11.
  Largest element of DIIS residual   :  0.91622718E-12.
  Amplitude equations converged in    19 iterations.
      The lambda equations have converged.
 @CHECKOUT-I, Total execution time (CPU/WALL):        0.26/       0.26 seconds.
--executable xlambda finished with status     0 in        0.81 seconds (walltime).
 --invoking executable--
/work/umbilias/work/software/cfour/cfour_v2.1_openmpi1.8.4_Intel14/cfour-public-master/bin/xdens
 @GETMEM-I,  Allocated     762 MB of main memory.
  CCSD(T) density and intermediates are calculated.
  The perturbed orbitals are chosen canonical.
  The iterative expansion of D(ai) converged after  16 iterations.
  ----------------------------------------------------------------------
                 Natural orbital occupation numbers
  ----------------------------------------------------------------------
  1.99908  1.98341  1.97166  1.96481  1.96199  0.02826  0.02588  0.01739
  0.01182  0.00634  0.00594  0.00519  0.00472  0.00449  0.00133  0.00129
  0.00096  0.00096  0.00078  0.00061  0.00057  0.00053  0.00053  0.00039
  0.00024  0.00023  0.00013  0.00011  0.00009  0.00008  0.00006  0.00006
  0.00004  0.00001  0.00000  0.00000  0.00000  0.00000  0.00000
  Trace of density matrix :  10.0000000000.
  ----------------------------------------------------------------------
  Density calculation successfully completed.
 @CHECKOUT-I, Total execution time (CPU/WALL):        0.05/       0.05 seconds.
--executable xdens finished with status     0 in        0.61 seconds (walltime).
 --invoking executable--
/work/umbilias/work/software/cfour/cfour_v2.1_openmpi1.8.4_Intel14/cfour-public-master/bin/xanti
 @GETMEM-I,  Allocated     762 MB of main memory.
 CCSD(T) MO gammas will be sorted to Mulliken order.
 @CHECKOUT-I, Total execution time (CPU/WALL):        0.03/       0.03 seconds.
--executable xanti finished with status     0 in        0.60 seconds (walltime).
 --invoking executable--
/work/umbilias/work/software/cfour/cfour_v2.1_openmpi1.8.4_Intel14/cfour-public-master/bin/xbcktrn
 @GETMEM-I,  Allocated     762 MB of main memory.
 @CHECKOUT-I, Total execution time (CPU/WALL):        0.02/       0.02 seconds.
--executable xbcktrn finished with status     0 in        0.53 seconds (walltime).
 --invoking executable--
/work/umbilias/work/software/cfour/cfour_v2.1_openmpi1.8.4_Intel14/cfour-public-master/bin/xvdint
 @GETMEM-I,  Allocated     762 MB of main memory.
 One- and two-electron integral derivatives are calculated
 for RHF-CC/MBPT gradients and dipole moments.
 Spherical gaussians are used.

                     Kinetic energy integral gradient
                     --------------------------------

                         O #1 z    -0.8451247452
                         H #2 y     1.0768307951
                         H #2 z     0.8451247452


 O #1       0.0000000000            0.0000000000           -0.8451247452
 H #2 1     0.0000000000            0.5384153975            0.4225623726
 H #2 2     0.0000000000           -0.5384153975            0.4225623726



                   Nuclear attraction integral gradient
                   ------------------------------------

                         O #1 z     8.0582325739
                         H #2 y   -10.2244878060
                         H #2 z    -8.0582325739


 O #1       0.0000000000            0.0000000000            8.0582325739
 H #2 1     0.0000000000           -5.1122439030           -4.0291162869
 H #2 2     0.0000000000            5.1122439030           -4.0291162869



                      Reorthonormalization gradient
                      -----------------------------

                         O #1 z    -0.4211750083
                         H #2 y     0.4715659086
                         H #2 z     0.4211750083


 O #1       0.0000000000            0.0000000000           -0.4211750083
 H #2 1     0.0000000000            0.2357829543            0.2105875041
 H #2 2     0.0000000000           -0.2357829543            0.2105875041


 Evaluation of 1e integral derivatives required    0.23 seconds.
 Evaluation of 2el integral derivatives

                      Two-electron integral gradient
                      ------------------------------

                         O #1 z    -3.7532035503
                         H #2 y     4.6111697633
                         H #2 z     3.7532035503


 O #1       0.0000000000            0.0000000000           -3.7532035503
 H #2 1     0.0000000000            2.3055848817            1.8766017752
 H #2 2     0.0000000000           -2.3055848817            1.8766017752


 Evaluation of 2e integral derivatives required    0.11 seconds.

                            Molecular gradient
                            ------------------

                         O #1 z     0.0000000001
                         H #2 y    -0.0000000001
                         H #2 z    -0.0000000001


 O #1       0.0000000000            0.0000000000            0.0000000001
 H #2 1     0.0000000000           -0.0000000000           -0.0000000000
 H #2 2     0.0000000000            0.0000000000           -0.0000000000


  Molecular gradient norm 0.120E-09

                           Total dipole moment
                           -------------------

                               au             Debye

                    z     -0.80233156     -2.03932377

  Conversion factor used: 1 a.u. =   2.54174691 Debye 


 @CHECKOUT-I, Total execution time (CPU/WALL):        0.14/       0.14 seconds.
--executable xvdint finished with status     0 in        0.64 seconds (walltime).
 --invoking executable--
/work/umbilias/work/software/cfour/cfour_v2.1_openmpi1.8.4_Intel14/cfour-public-master/bin/xjoda
  @GTFLGS-F, ABCDTYPE=AOBASIS needed for efficient parallel computations.
   JODA beginning optimization cycle #  7.
   Retrieving information from last optimization cycle.
 OriVec is   0.000000000000000E+000  -1.00000000000000     
 -2.350983713528535E-016                    -2
  igrd and ihes are                      0                    -1
  gradient from JOBARC 
   0.000000000000000   0.000000000000000   0.000000000071372
   0.000000000000000  -0.000000000032582  -0.000000000035687
   0.000000000000000   0.000000000032582  -0.000000000035687
 
   Internal coordinate energy gradients (atomic units): 
                     R                 dV/dR
 [R    ]    1.811053682125445    0.000000000047719
 [R    ]    1.811053682125445    0.000000000047719
 [A    ]    1.796567599597876   -0.000000000013798
                     6                    -1                     0 ****
   Hessian from cycle  6 read.
   BFGS update using last two gradients and previous step.
   Optimization cycle  7.  Updating structure with Newton-Raphson step.
  @EFOL-I, Current internal coordinate Hessian written to FCMINT.
   There are   2 independent internal coordinates which will be optimized.
   Hessian matrix in totally symmetric symmetry coordinates: 
              R         A    
  R          0.542549  0.047115
  A          0.047115  0.167708
   The eigenvectors of the Hessian matrix: 
                   1         2
  R          0.122830  0.992428
  A         -0.992428  0.122830
   The eigenvalues of the Hessian matrix: 
     0.16188    0.54838
   Gradients along Hessian eigenvectors: 
     0.00000    0.00000
   There are  0 negative eigenvalues.
   Summary of Optimization Cycle: 
   The maximum unscaled step is:    0.00000.
   Scale factor set to:  1.00000.
   Forces are in hartree/bohr and hartree/radian.
   Parameter values are in Angstroms and degrees.
--------------------------------------------------------------------------
  Parameter     dV/dR           Step          Rold            Rnew
--------------------------------------------------------------------------
    R       0.0000000000   -0.0000000001    0.9583683316    0.9583683315
    A      -0.0000000000    0.0000000069  102.9357410669  102.9357410738
--------------------------------------------------------------------------
  Minimum force:  0.000000000 / RMS force:  0.000000000
--------------------------------------------------------------------------------
   RMS gradient is below .10000E-09.
   Convergence criterion satisfied.  Optimization completed.
--------------------------------------------------------------------------------
   Interatomic distance matrix (Angstroms) 
 
                 O             H             H    
                [ 1]        [ 2]        [ 3]
  O    [ 1]     0.00000
  H    [ 2]     0.95837     0.00000
  H    [ 3]     0.95837     1.49938     0.00000
 @EFOL-I, Writing out completion flag to disk
 
********************************************************************************
*                          Final ZMATnew file                                  *
********************************************************************************
Geometry optimization of H2O at CCSD(T) level (from the cfour web)              
O                                                                               
H 1 R*                                                                          
H 1 R* 2 A*                                                                     
                                                                                
R    =        0.958368331538132                                                 
A    =      102.935741073791533                                                 
                                                                                
*ACES2(CALC=CCSD(T),BASIS=dzp                                                   
CONTRACTION=UNCONTRACTED                                                        
RELATIVISTIC=X2C1E                                                              
GEO_CONV=10                                                                     
CC_CONV=12                                                                      
LINEQ_CONV=12                                                                   
SCF_CONV=12)                                                                    
                                                                                
********************************************************************************
--executable xjoda finished with status     0 in        0.53 seconds (walltime).
  The final electronic energy is       -76.345741909237589 a.u. 
  This computation required                           80.32 seconds (walltime).
ls: cannot access /localscratch/817329.mgmt1/umbilias.CFOURrun/817329.mgmt1: No such file or directory
