Running on host comp46
Time is Sun Jul 28 22:07:02 CEST 2019
Directory is /home/umbilias
This jobs runs on the following processors:
comp46 comp46 comp46 comp46
Unique nodes (processors), from PBS_NODEFILE:
comp46
This job has allocated 4 cpus
# of processors in node: 12
The host (main) node has  cpus.
Unique nodes (processors) :  comp46

MKL_NUM_THREADS=4
MKL_DYNAMIC=FALSE
OMP_NUM_THREADS=1
--------------------------------------------

Filesystem            Size  Used Avail Use% Mounted on
/dev/sdb1             459G  8.5G  427G   2% /tmp
 --invoking executable--
/work/umbilias/work/software/cfour/cfour_v2.1_openmpi1.8.4_Intel14/cfour-public-master/bin/xinitenv
--executable xinitenv finished with status     0 in        0.60 seconds (walltime).
 --invoking executable--
/work/umbilias/work/software/cfour/cfour_v2.1_openmpi1.8.4_Intel14/cfour-public-master/bin/xjoda


   *************************************************************************
         <<<     CCCCCC     CCCCCC   |||     CCCCCC     CCCCCC   >>>
       <<<      CCC        CCC       |||    CCC        CCC         >>>
      <<<      CCC        CCC        |||   CCC        CCC            >>>
    <<<        CCC        CCC        |||   CCC        CCC              >>>
      <<<      CCC        CCC        |||   CCC        CCC            >>>
       <<<      CCC        CCC       |||    CCC        CCC         >>>
         <<<     CCCCCC     CCCCCC   |||     CCCCCC     CCCCCC   >>>
   *************************************************************************

     ****************************************************************
     * CFOUR Coupled-Cluster techniques for Computational Chemistry *
     ****************************************************************
 

   Department of Chemistry                Institut fuer Physikalische Chemie
   University of Florida                  Universitaet Mainz
   Gainesville, FL 32611, USA             D-55099 Mainz, Germany

   Department of Chemistry                Fakultaet fuer Chemie und Biowiss.
   Johns Hopkins University               Karlsruher Institut fuer Technologie
   Baltimore, MD 21218, USA               D-76131 Karlsruhe, Germany

   Department of Chemistry                Department of Physical Chemistry
   Southern Methodist University          Eotvos Lorand University
   Dallas, TX 75275, USA                  H-1053 Budapest, Hungary

 
                       Version 2.1
 
                     comp46                                            
                     Sun Jul 28 22:07:18 CEST 2019                     
                     integer*8 version is running
 
********************************************************************************
*                          Input from ZMAT file                                *
********************************************************************************
                                                                                
O                                                                               
H 1 R*                                                                          
H 1 R* 2 A*                                                                     
                                                                                
R=0.958                                                                         
A=104.5                                                                         
                                                                                
*CFOUR(CALC=CCSD(T)                                                             
CC_PROG=ECC                                                                     
ABCDTYPE=AOBASIS                                                                
RELATIVISTIC=X2C1E                                                              
BASIS=DZP)                                                                      
                                                                                
********************************************************************************
 
     PARALLEL RUN STARTED ON            1  CORES/NODES.
 
    -------------------------------------------------------------------
                    CFOUR Control Parameters 
    -------------------------------------------------------------------
        External           Internal           Value            Units
          Name               Name
    -------------------------------------------------------------------
       ABCDTYPE             IABCDT         AOBASIS     [  2]    ***   
       ANHARMONIC           IANHAR         OFF         [  0]    ***   
       ANH_ALGORIT          IANALG         STANDARD    [  0]    ***   
       ANH_DERIVAT          IANDER         SECOND      [  1]    ***   
       ANH_MODE             ANHMOD         VIBRATION   [  0]    ***   
       ANH_STEPSIZ          ICUBST             50000          x 10-6  
       ANH_SYMMETR          IANHSM         ABELIAN     [  0]    ***   
       AO_LADDERS           IAOLAD         SINGLEPASS  [  1]    ***   
       AV_SCF               IAVSCF         OFF         [  0]    ***   
       BASIS                IBASIS         DZP         [ 11]    ***   
       BOTHVECTORS          BOTHVC         OFF         [  0]    ***   
       BOX_POTENT           IPIAB          OFF         [  0]    ***   
       BREIT                IBREIT         OFF         [  0]    ***   
       BRUCK_CONV           IBRTOL          10D-  4             ***   
       BRUECKNER            IBRKNR         OFF         [  0]    ***   
       BUFFERSIZE           IBUFFS              4096            ***   
       CACHE_RECS           ICHREC             10               ***   
       CALCLEVEL            ICLLVL         CCSD(T)     [ 22]    ***   
       CCORBOPT             ICCORB         OFF         [  0]  x 0.01  
       CC_CONV              ICCCNV          10D-  7             ***   
       CC_EXPORDER          ICCEOR              5               ***   
       CC_EXTRAPOL          ICCEXT         DIIS        [  1]    ***   
       CC_GUESS             ICCGES         MP2         [  0]    ***   
       CC_MAXCYC            ICCCYC            100              cycles 
       CC_PROGRAM           ICCPRO         ECC         [  1]    ***   
       CHARGE               ICHRGE              0               ***   
       CHOLESKY             ICHOLE         OFF         [  0]    ***   
       CIS_CONV             ICISTL              5               ***   
       COMM_SIZE            IPSIZE            ***               ***   
       CONSTANT             ICONST         OLD         [  1]    ***   
       CONTINUUM            ICONTU         NONE        [  0]    ***   
       CONTRACTION          ICNTYP         GENERAL     [  1]    ***   
       COORDINATES          ICOORD         INTERNAL    [  0]    ***   
       CPHF_CONVER          ICPHFT          10D- 16             ***   
       CPHF_MAXCYC          ICPHFC             64              cycles 
       CUBIC                ICUBIC         OFF         [  0]    ***   
       CURVILINEAR          ICURVY         OFF         [  0]    ***   
       DBOC                 IDBOC          OFF         [  0]    ***   
       DCT                  IDCT           OFF         [  0]    ***   
       DERIV_LEV            IDRLVL         FIRST       [  1]    ***   
       DEVMEM_SIZE          IDVMEM          50000000           MByte  
       DIAG_MRCC            IEOMST          10D-  0             ***   
       DIFF_TYPE            IDIFTY         RELAXED     [  0]    ***   
       DIRECT               IDIRCT         OFF         [  0]    ***   
       DROPMO               IDRPMO      NONE         
       ECP                  IECP           OFF         [  0]    ***   
       EIGENVECTOR          IVEC                1               ***   
       EL_ANHARM            IELANH         OFF         [  0]    ***   
       EOMFOLLOW            IEOMSR         ENERGY      [  0]    ***   
       EOMIP                IEOMIP         OFF         [  0]    ***   
       EOMLEVEL             HBARFM         SAME        [  0]    ***   
       EOM_MRCC             IMRCCE         NEW         [  1]    ***   
       EOM_NONIT            EOMNON         OFF         [  0]    ***   
       EOM_NSING            IEOMSI          10D-  0             ***   
       EOM_NSTATES          IMRCCD         DAVIDSON    [  0]    ***   
       EOM_NTRIP            IEOMTR          10D-  0             ***   
       EOM_ORDER            IEXORD         ENERGY      [  0]    ***   
       EOM_PROPSTA          IEOMST              0               ***   
       ESTATE_CONV          IEXTOL          10D-  5             ***   
       ESTATE_DIAG          IEXDIG         ITERATIVE   [  0]    ***   
       ESTATE_LOCK          IESLOC         ON          [  1]    ***   
       ESTATE_MAXC          IEXMXC             40               ***   
       ESTATE_PROP          IEXPRP         OFF         [  0]    ***   
       EVAL_HESS            IRECAL              0            # of cyc.
       EXCITATION           IEXCIT              0               ***   
       EXCITE               IEXCIT         NONE        [  0]    ***   
       EXTERN_POT           IEXPOT         OFF         [  0]    ***   
       FCGRADNEW            IFCGNW         OFF         [  0]    ***   
       FC_FIELD             IFINFC              0             x 10-6  
       FD_CALTYPE           IFDCAL         GRADONLY    [  0]    ***   
       FD_PROJECT           IFDPRJ         OFF         [  1]    ***   
       FD_STEPSIZE          IDISFD              0            10-4 bohr
       FD_USEGROUP          IFDGRP         FULL        [  0]    ***   
       FILE_RECSIZ          IFLREC              4096           words  
       FINITE_PERT          IFIPER              0             x 10-6  
       FIXGEOM              IFIXGM         OFF         [  0]    ***   
       FOCK                 IFOCK          AO          [  1]    ***   
       FREQ_ALGORI          IVIALG         STANDARD    [  0]    ***   
       FROZEN_CORE          IFROCO         OFF         [  0]    ***   
       GAMMA_ABCD           IGABCD         DIRECT      [  1]    ***   
       GAMMA_ABCI           IGABCI         STORE       [  0]    ***   
       GENBAS_1             IGNBS1              0               ***   
       GENBAS_2             IGNBS2              0               ***   
       GENBAS_3             IGNBS3              0               ***   
       GENBAS_4             IGNBS4              0               ***   
       GEO_CONV             ICONTL              5              H/bohr 
       GEO_MAXCYC           IOPTCY             50               ***   
       GEO_MAXSTEP          IMXSTP            300            millibohr
       GEO_METHOD           INR            NR          [  0]    ***   
       GIAO                 IGIAO          OFF         [  1]    ***   
       GIMIC                IGIMIC         OFF         [  0]    ***   
       GRID                 IGRID          OFF         [  0]    ***   
       GRID_ALGO            IGALGO         SERIAL      [  0]    ***   
       GUESS                IGUESS         MOREAD      [  0]    ***   
       HBAR                 IHBAR          OFF         [  0]    ***   
       HESS_TYPE            IHESTP         SCF         [  0]    ***   
       HF2_FILE             IHF2Fl         USE         [  1]    ***   
       HFSTABILITY          ISTABL         OFF         [  0]    ***   
       INCORE               INCORE         OFF         [  0]    ***   
       INPUT_MRCC           IMRCC          ON          [  1]    ***   
       INTEGRALS            INTTYP         VMOL        [  1]    ***   
       JODA_PRINT           IJPRNT              0               ***   
       KEYWORD_OUT          IDMPKW         NO          [  0]    ***   
       LINDEP_TOL           ILINDP              8               ***   
       LINEQ_CONV           IZTACN          10D-  7           cycles  
       LINEQ_EXPOR          ILMAXD              5               ***   
       LINEQ_MAXCY          ILMAXC            100               ***   
       LINEQ_TYPE           ILTYPE         DIIS        [  1]    ***   
       LOCK_ORBOCC          ILOCOC         OFF         [  0]    ***   
       MEMORY_SIZE          IMEMSZ         100000000           words  
       MEM_UNIT             IMEMU          INTEGERWORDS[  0]    ***   
       MRCC                 IMRCCC         OFF         [  0]    ***   
       MULTIPLICTY          IMULTP              1               ***   
       NACOUPLING           IVCOUP         OFF         [  0]    ***   
       NEGEVAL              IDIE           ABORT       [  0]    ***   
       NEWNORM              INEWNO         OFF         [  0]    ***   
       NON-HF               INONHF         OFF         [  0]    ***   
       NTOP_TAMP            ITOPT2             15               ***   
       NUC_MODEL            INUCMO         POINT       [  0]    ***   
       OCCUPATION           IOCCU   ESTIMATED BY SCF 
       OPEN-SHELL           IOPEN          SPIN-ORBITAL[  0]    ***   
       OPTVIB               IOPTVB         OFF         [  0]    ***   
       ORBITALS             IORBTP         STANDARD    [  0]    ***   
       PARALLEL             IPARAL         ON          [  1]    ***   
       PARA_INT             IPINTS         ON          [  1]    ***   
       PARA_PRINT           IPPRIN              0               ***   
       PERT_ORB             IPTORB         CANONICAL   [  1]    ***   
       POINTS               IGRDFD              0               ***   
       PRINT                IPRNT               0               ***   
       PROPS                IPROPS         OFF         [  0]    ***   
       PROP_INTEGR          IINTYP         INTERNAL    [  0]    ***   
       PSI                  IPSI           OFF         [  0]    ***   
       QC_ALG               IQCALG         FLM         [  0]    ***   
       QC_LINALG            IQCLIN         TRIDIAG     [  2]    ***   
       QC_MAXCYC            IQCMAX          10D-100           cycles  
       QC_MAXSCFCY          IQCMSC          10D- 15           cycles  
       QC_RTRUST            IQCRTR          10D-  0           x 10-3  
       QC_SKIPSCF           IQCSKI         OFF         [  0]    ***   
       QC_START             IQCSTA          10D-  1             ***   
       QRHFGUESS            IQGUES         OFF         [  0]    ***   
       QUARTIC              IQUART         OFF         [  0]    ***   
       RAMAN_INT            IRAMIN         OFF         [  0]    ***   
       RAMAN_ORB            IRAMRE         UNRELAXED   [  0]    ***   
       RDO                  IRDOFM         ON          [  1]    ***   
       REDUCE_REPR          REDREP         Ir          [  0]    ***   
       REFERENCE            IREFNC         RHF         [  0]    ***   
       RELATIVIST           IRELAT         X2C1E       [ 11]    ***   
       RELAX_DENS           IRDENS         ON          [  1]    ***   
       RESET_FLAGS          IRESET         OFF         [  0]    ***   
       RESTART_CC           ICCRES         OFF         [  0]    ***   
       ROT_EVEC             ROTVEC              0               ***   
       SAVE_INTS            ISVINT         OFF         [  0]    ***   
       SCALE_ON             ISTCRT              0               ***   
       SCF_CONV             ISCFCV          10D-  7             ***   
       SCF_DAMPING          IDAMP               0             x 10-3  
       SCF_EXPORDE          IRPPOR              6               ***   
       SCF_EXPSTAR          IRPPLS              8               ***   
       SCF_EXTRAPO          IRPP           ON          [  1]    ***   
       SCF_MAXCYC           ISCFCY            150              cycles 
       SCF_NOSTOP           ISCFST         OFF         [  0]    ***   
       SCF_PRINT            ISCFPR              0               ***   
       SCF_PROG             ISCFPR         SCF         [  0]    ***   
       SD_FIELD             IFINSD              0             x 10-6  
       SOPERT               IPERSO         OFF         [  0]    ***   
       SPHERICAL            IDFGHI         ON          [  1]    ***   
       SPINORBIT            ISOCAL         OFF         [  0]    ***   
       SPINROTATIO          ISRCON         OFF         [  0]    ***   
       SPIN_FLIP            ISPFLP         OFF         [  0]    ***   
       SPIN_ORBIT           ISPORB         OFF         [  0]    ***   
       SPIN_SCAL            ISCSMP         OFF         [  0]    ***   
       STEEPSCALE           ISTPSC              1000          x 10-3  
       SUBGROUP             ISUBGP         DEFAULT     [  0]    ***   
       SUBGRPAXIS           ISBXYZ         X           [  0]    ***   
       SYMMETRY             ISYM           ON          [  0]    ***   
       SYM_CHECK            ISYMCK         OVERRIDE    [  1]    ***   
       T3_EXTRAPOL          IT3EXT         OFF         [  0]    ***   
       T4_EXTRAPOL          IT4EXP         OFF         [  0]    ***   
       TAMP_SUM             IEVERY              5               ***   
       TESTSUITE            ITESTS         OFF         [  0]    ***   
       THERMOCH             ITHERM         OFF         [  0]    ***   
       TOL_CHOLESK          ITOLCH          10D-  4             ***   
       TRANGRAD             IRESRM         OFF         [  0]    ***   
       TRANS_INV            ITRAIN         USE         [  0]    ***   
       TREAT_PERT           ITREAT         SIMULTANEOUS[  0]    ***   
       TRIP_ALGORI          ITRALG         NORMAL      [  0]    ***   
       UIJ_THRESHO          IUIJTH              1               ***   
       UNITS                IUNITS         ANGSTROM    [  0]    ***   
       UNOS                 IUNOS          OFF         [  0]    ***   
       UPDATE_HESS          IHUPDT         ON          [  1]    ***   
       VIBPHASE             ISETPH         STANDARD    [  0]    ***   
       VIBRATION            IVIB           NO          [  0]    ***   
       VIB_ALGORIT          IGEALG         STANDARD    [  0]    ***   
       VNATORB              IVNORB         OFF         [  0]    ***   
       VTRAN                IVTRAN         PARTIAL     [  2]    ***   
       XFIELD               IXEFLD              0             x 10-6  
       XFORM_TOL            IXFTOL          10D- 11             ***   
       YFIELD               IYEFLD              0             x 10-6  
       ZFIELD               IZEFLD              0             x 10-6  
       ZSCALE_EXP           IZEXPS         OFF         [  0]    ***   
    -------------------------------------------------------------------
   2 entries found in Z-matrix 
   Job Title : O                                                                               
   Symbol A     not found in Z-matrix.
   There are  1 unique internal coordinates.
   Of these,  1 will be optimized.
   User supplied Z-matrix: 
--------------------------------------------------------------------------------
       SYMBOL    BOND      LENGTH    ANGLE     ANGLE     DIHED     ANGLE
                  TO      (ANGST)    WRT      (DEG)      WRT      (DEG)
--------------------------------------------------------------------------------
        H    
        H          1         R    
                  *Initial values for internal coordinates* 
                      Name             Value
                        R               0.9580000000
--------------------------------------------------------------------------------
   Rotational constants (in cm-1): 
         36.4510791543            36.4510791543
   Rotational constants (in MHz): 
    1092776.0147370326       1092776.0147370326
********************************************************************************
   The full molecular point group is DXh .
   The largest Abelian subgroup of the full molecular point group is D2h .
   The computational point group is D2h .
********************************************************************************
--------------------------------------------------------------------------------
   Analysis of internal coordinates specified by Z-matrix 
--------------------------------------------------------------------------------
   *The nuclear repulsion energy is    0.552376931106472 a.u.
   *There is   1 degree of freedom within the tot. symm. molecular subspace.
   *Z-matrix requests optimization of   1 coordinates.
   *The optimization is unconstrained and your Z-matrix is great.
--------------------------------------------------------------------------------


 ----------------------------------------------------------------
         Coordinates used in calculation (QCOMP) 
 ----------------------------------------------------------------
 Z-matrix   Atomic            Coordinates (in bohr)
  Symbol    Number           X              Y              Z
 ----------------------------------------------------------------
     H         1        -0.00000000     0.00000000     0.90517900
     H         1         0.00000000     0.00000000    -0.90517900
 ----------------------------------------------------------------
 
   Interatomic distance matrix (Angstroms) 
 
                 H             H    
                [ 1]        [ 2]
  H    [ 1]     0.00000
  H    [ 2]     0.95800     0.00000
 rotcon2
   Rotational constants (in cm-1): 
         36.4510791543             0.0000000000
   Rotational constants (in MHz): 
    1092776.0147370326             0.0000000000
  There are   10 basis functions.
 @CHECKOUT-I, Total execution time (CPU/WALL):        0.13/       0.94 seconds.
--executable xjoda finished with status     0 in        1.41 seconds (walltime).
 --invoking executable--
/work/umbilias/work/software/cfour/cfour_v2.1_openmpi1.8.4_Intel14/cfour-public-master/bin/xvmol
 PARALLEL VERSION OF MOLECULE STARTED ON NODE            0 :
********************************************************************************
                    INPUT FROM MOL FILE
********************************************************************************
INTGRL        1    0    1    0    0    0    0    0    0                         
         *** CFOUR Program System (Release V0.1) ***                            
O                                                                               
    1    3 X  Y   Z   0.10E-08              0    0                              
   9999.00      3.00                                                            
          1.00000000    1    2    1    1                                        
H #1  -0.000000000000000   0.000000000000000   0.905179003399807                
    4    2                                                                      
   19.2406000000000       3.282800000000000E-002  0.000000000000000E+000        
   2.89920000000000       0.231208000000000       0.000000000000000E+000        
  0.653400000000000       0.817238000000000       0.000000000000000E+000        
  0.177600000000000       0.000000000000000E+000   1.00000000000000             
    1    1                                                                      
  0.700000000000000        1.00000000000000                                     
FINISH                                                                          
 
********************************************************************************

Running with 1 threads/proc

 ONE- AND TWO-ELECTRON INTEGRALS OVER SYMMETRY-ADAPTED AOS ARE CALCULATED.

  SPHERICAL HARMONICS ARE USED.
  
  INTEGRALS LESS THAN  0.10E-13 ARE NEGLECTED.

  NUCLEAR REPULSION ENERGY :    0.5523769311 A.U.
  @MOLECU-I, ONE ELECTRON INTEGRALS (CPU/WALL):        0.00/       0.00 SECONDS.
  @TWOEL-I,         46 INTEGRALS OF SYMMETRY TYPE  I I I I
  @TWOEL-I,         99 INTEGRALS OF SYMMETRY TYPE  I J I J
  @TWOEL-I,         90 INTEGRALS OF SYMMETRY TYPE  I I J J
  @TWOEL-I,         57 INTEGRALS OF SYMMETRY TYPE  I J K L
  @TWOEL-I, TOTAL NUMBER OF 2-E INTEGRALS        292.
  @MOLECU-I, TWO ELECTRON INTEGRALS (CPU/WALL):        0.00/       0.00 SECONDS.
 @CHECKOUT-I, Total execution time (CPU/WALL):        0.01/       0.01 seconds.
--executable xvmol finished with status     0 in        0.52 seconds (walltime).
 --invoking executable--
/work/umbilias/work/software/cfour/cfour_v2.1_openmpi1.8.4_Intel14/cfour-public-master/bin/xvmol2ja
 @GETMEM-I,  Allocated     762 MB of main memory.
 @CHECKOUT-I, Total execution time (CPU/WALL):        0.00/       0.00 seconds.
--executable xvmol2ja finished with status     0 in        0.51 seconds (walltime).
  a 
 --invoking executable--
/work/umbilias/work/software/cfour/cfour_v2.1_openmpi1.8.4_Intel14/cfour-public-master/bin/xvdint
 @GETMEM-I,  Allocated     762 MB of main memory.
 One- and two-electron integral derivatives are calculated
 for RHF-CC/MBPT gradients and dipole moments.
 Spherical gaussians are used.
 Evaluated one-electron integrals:   dipole integrals
  keyword missing for gradient integrals in sfree
  pVp integrals for spin-free DHF
  derivative pVp integrals for spin-free DHF
 Evaluation of 1e integral derivatives required    0.46 seconds.
 Evaluation of 2e integral derivatives required    0.00 seconds.


 @CHECKOUT-I, Total execution time (CPU/WALL):        0.26/       0.26 seconds.
--executable xvdint finished with status     0 in        0.74 seconds (walltime).
 --invoking executable--
/work/umbilias/work/software/cfour/cfour_v2.1_openmpi1.8.4_Intel14/cfour-public-master/bin/xvpropx2c
 @GETMEM-I,  Allocated     762 MB of main memory.
 generating sfx2c-1e gradient integrals
 end generating sfx2c-1e gradient integrals
 @CHECKOUT-I, Total execution time (CPU/WALL):        0.01/       0.01 seconds.
--executable xvpropx2c finished with status     0 in        0.52 seconds (walltime).
 --invoking executable--
/work/umbilias/work/software/cfour/cfour_v2.1_openmpi1.8.4_Intel14/cfour-public-master/bin/xvmol2ja
 @GETMEM-I,  Allocated     762 MB of main memory.
 @CHECKOUT-I, Total execution time (CPU/WALL):        0.00/       0.00 seconds.
--executable xvmol2ja finished with status     0 in        0.51 seconds (walltime).
 --invoking executable--
/work/umbilias/work/software/cfour/cfour_v2.1_openmpi1.8.4_Intel14/cfour-public-master/bin/xvscf
  There are   10 functions in the AO basis.

  There are 8 irreducible representations.

       Irrep        # of functions
         1                  3
         2                  1
         3                  1
         4                  0
         5                  3
         6                  1
         7                  1
         8                  0


  Parameters for SCF calculation: 
        SCF reference function:  RHF  
  Maximum number of iterations:  150
     Full symmetry point group: DXh 
     Computational point group: D2h 
        Initial density matrix: MOREAD                 
     SCF convergence tolerance: 10**(- 7)
  DIIS convergence acceleration:  ON
          Latest start for DIIS:   8
                     DIIS order:   6

  Memory information:      53676 words required.
  Fock matrices are constructed from AO integral file.
 @GETMEM-I,  Allocated       0 MB of main memory.
  Initialization and symmetry analysis required      0.193 seconds.

  @INITGES-I, Occupancies from core Hamiltonian:

          Alpha population by irrep:   1    0    0    0    0    0    0    0
           Beta population by irrep:   1    0    0    0    0    0    0    0


 total no. of electrons in initial guess :  0.000000000000000E+000
  --------------------------------------------------------------------
  Iteration         Total Energy            Largest Density Difference
  --------------------------------------------------------------------
       0             0.552376931106472              0.0000000000D+00
   current occupation vector 
     1  0  0  0  0  0  0  0
     1  0  0  0  0  0  0  0
       1            -1.060712343677831              0.2703958246D+00
   current occupation vector 
     1  0  0  0  0  0  0  0
     1  0  0  0  0  0  0  0
       2            -1.106080268831318              0.1057892488D+00
   current occupation vector 
     1  0  0  0  0  0  0  0
     1  0  0  0  0  0  0  0
       3            -1.107055302774656              0.1725950039D-01
   current occupation vector 
     1  0  0  0  0  0  0  0
     1  0  0  0  0  0  0  0
       4            -1.107055462525916              0.1293216529D-03
   current occupation vector 
     1  0  0  0  0  0  0  0
     1  0  0  0  0  0  0  0
       5            -1.107055462800788              0.9411816383D-05
   current occupation vector 
     1  0  0  0  0  0  0  0
     1  0  0  0  0  0  0  0

  SCF has converged.

 Density matrix saved to file den.dat
 total electron number:   2.00000000000001     
     E(SCF)=        -1.107055462800791              0.1423782484D-07

  Eigenvector printing suppressed.

 @PUTMOS-I, Writing converged MOs to NEWMOS. 
 @PUTMOS-I, Symmetry   1 Full Blocks  0 Partial Blocksize   3
 @PUTMOS-I, Symmetry   2 Full Blocks  0 Partial Blocksize   1
 @PUTMOS-I, Symmetry   3 Full Blocks  0 Partial Blocksize   1
 @PUTMOS-I, Symmetry   4 Full Blocks  0 Partial Blocksize   0
 @PUTMOS-I, Symmetry   5 Full Blocks  0 Partial Blocksize   3
 @PUTMOS-I, Symmetry   6 Full Blocks  0 Partial Blocksize   1
 @PUTMOS-I, Symmetry   7 Full Blocks  0 Partial Blocksize   1
 @PUTMOS-I, Symmetry   8 Full Blocks  0 Partial Blocksize   0
 @PUTFOCK-I, Writing converged Fock matrix to NEWFOCK. 
 @PUTFOCK-I, Symmetry   1 Full Blocks  0 Partial Blocksize   3
 @PUTFOCK-I, Symmetry   2 Full Blocks  0 Partial Blocksize   1
 @PUTFOCK-I, Symmetry   3 Full Blocks  0 Partial Blocksize   1
 @PUTFOCK-I, Symmetry   4 Full Blocks  0 Partial Blocksize   0
 @PUTFOCK-I, Symmetry   5 Full Blocks  0 Partial Blocksize   3
 @PUTFOCK-I, Symmetry   6 Full Blocks  0 Partial Blocksize   1
 @PUTFOCK-I, Symmetry   7 Full Blocks  0 Partial Blocksize   1
 @PUTFOCK-I, Symmetry   8 Full Blocks  0 Partial Blocksize   0


 
  ORBITAL EIGENVALUES (ALPHA)  (1H = 27.2113834 eV)

       MO #        E(hartree)               E(eV)           FULLSYM    COMPSYM
       ----   --------------------   --------------------   -------   ---------
    1     1          -0.5309308545         -14.4473630415    SGg+        Ag (1)
  +++++++++++++++++++++++++++++++++++++++++++++++++++++++++++++++++++++++++++++
    2     6           0.2011552301           5.4737120883    SGu+       B1u (5)
    3     2           0.9130072817          24.8441911906    SGg+        Ag (1)
    4     7           1.1479467471          31.2372190592    SGu+       B1u (5)
    5     5           1.2411943315          33.7746148281    PIu        B2u (3)
    6     4           1.2411943315          33.7746148281    PIu        B3u (2)
    7     3           1.7707526807          48.1846301007    SGg+        Ag (1)
    8     9           1.8434880219          50.1638593564    PIg        B3g (6)
    9    10           1.8434880219          50.1638593564    PIg        B2g (7)
   10     8           2.7485358782          74.7914635713    SGu+       B1u (5)


  VSCF finished.

 @CHECKOUT-I, Total execution time (CPU/WALL):        0.01/       0.01 seconds.
--executable xvscf finished with status     0 in        0.52 seconds (walltime).
 --invoking executable--
/work/umbilias/work/software/cfour/cfour_v2.1_openmpi1.8.4_Intel14/cfour-public-master/bin/xvtran
 @GETMEM-I,  Allocated     762 MB of main memory.
  Partial RHF integral transformation
 ! shown number of AO integrals not right ! (in parallel version)
  Transformation of IIII integrals :
  1 pass through the AO integral file was required.
          46 AO integrals were read.
          15 MO integrals were written to HF2.
  Transformation of IIJJ integrals :
  1 pass through the AO integral file was required.
          90 AO integrals were read.
          30 MO integrals were written to HF2.
  Transformation of IJIJ integrals :
  1 pass through the AO integral file was required.
          99 AO integrals were read.
          36 MO integrals were written to HF2.
  Transformation of IJKL integrals :
  1 pass through the AO integral file was required.
          57 AO integrals were read.
          18 MO integrals were written to HF2.
  Summary of active molecular orbitals: 
------------------------------------------------------------------------
 
  Index      Eigenvalue    Symmetry    Index      Eigenvalue    Symmetry
------------------------------------------------------------------------
     1        -0.5309309        1         6         0.2011552        5
     2         0.9130073        1         7         1.1479467        5
     3         1.7707527        1         8         2.7485359        5
     4         1.2411943        2         9         1.8434880        6
     5         1.2411943        3        10         1.8434880        7
------------------------------------------------------------------------
 -0.530930854531197       0.913007281745531        1.77075268068634     
   1.24119433148978        1.24119433148978       0.201155230068698     
   1.14794674713928        2.74853587823580        1.84348802186949     
   1.84348802186949     
 @CHECKOUT-I, Total execution time (CPU/WALL):        0.01/       0.01 seconds.
--executable xvtran finished with status     0 in        0.52 seconds (walltime).
 --invoking executable--
/work/umbilias/work/software/cfour/cfour_v2.1_openmpi1.8.4_Intel14/cfour-public-master/bin/xintprc
 @GETMEM-I,  Allocated     762 MB of main memory.
  @GMOIAA-I, Processing MO integrals for spin case AA.
  @GMOIAA-I, Generation of integral list completed.
                      TYPE                NUMBER
                      ----               --------
                      PPPP                     0
                      PPPH                    70
                      PPHH                    13
                      PHPH                    13
                      PHHH                     2
                      HHHH                     1

                     TOTAL                    99

  @FORMT2-I, Second-order MP correlation energies:
            ------------------------------------------------
            E(SCF)                  =     -1.107055462801 a.u.
            E2(AA)                  =      0.000000000000 a.u.
            E2(AB)                  =     -0.028952825149 a.u.
            E2(TOT)                 =     -0.028952825149 a.u.
            Total MP2 energy        =     -1.136008287950 a.u.
            ------------------------------------------------
   Largest T2 amplitudes for spin case AB:
       _       _                 _       _                 _       _
   i   j   a   b             i   j   a   b             i   j   a   b
-----------------------------------------------------------------------------
[  1   1   6   6]-0.06902 [  1   1   2   2]-0.03771 [  1   1   7   6]-0.03167
[  1   1   6   7]-0.03167 [  1   1   4   4]-0.03025 [  1   1   5   5]-0.03025
[  1   1   7   7]-0.02824 [  1   1   3   3]-0.01587 [  1   1   9   9]-0.01172
[  1   1  10  10]-0.01172 [  1   1   8   8]-0.00832 [  1   1   8   7]-0.00759
[  1   1   7   8]-0.00759 [  1   1   8   6]-0.00499 [  1   1   6   8]-0.00499
-----------------------------------------------------------------------------
   Norm of T2AB vector (       17 symmetry allowed elements):  0.1078360799.
-----------------------------------------------------------------------------
 @CHECKOUT-I, Total execution time (CPU/WALL):        0.01/       0.02 seconds.
--executable xintprc finished with status     0 in        0.53 seconds (walltime).
  calling xecc 
 --invoking executable--
/work/umbilias/work/software/cfour/cfour_v2.1_openmpi1.8.4_Intel14/cfour-public-master/bin/xecc
 @GETMEM-I,  Allocated     762 MB of main memory.
 CCSD(T) energy will be calculated.
 AO based algorithm is used. 
 Largest T2 amplitudes for spin case AB:
        _       _                 _       _                 _       _
    i   j   a   b             i   j   a   b             i   j   a   b
 -----------------------------------------------------------------------------
 [  1   1   6   6]-0.06902 [  1   1   2   2]-0.03771 [  1   1   7   6]-0.03167
 [  1   1   6   7]-0.03167 [  1   1   4   4]-0.03025 [  1   1   5   5]-0.03025
 [  1   1   7   7]-0.02824 [  1   1   3   3]-0.01587 [  1   1   9   9]-0.01172
 [  1   1  10  10]-0.01172 [  1   1   8   8]-0.00832 [  1   1   8   7]-0.00759
 [  1   1   7   8]-0.00759 [  1   1   8   6]-0.00499 [  1   1   6   8]-0.00499
 -----------------------------------------------------------------------------
 Norm of T2AB vector (       17 symmetry allowed elements):  0.1078360799.
 -----------------------------------------------------------------------------
 The total correlation energy is -0.028952825149 a.u.
 Resorts of amplitudes and integrals (CPU/WALL):       0.00/       0.00 seconds.
 Starting iterative solution of the CC equations.
 The DIIS procedure is used to accelerate convergence.
 5 expansion vectors are used in the DIIS extrapolation.
 Convergence criterium is 10**(-7).
 Maximum number of iterations is 100.
 >>>>>>>>>>>>>>>>>>>>>>>>>>>>>>>>>>>>>>>>>>>>>>>>>>>>>>>>>>>>>>>>>>>>>>>>>>>>>>>
 Iteration Nr.   1 started:
 Generation of Intermediates required (CPU/WALL):      0.00/       0.00 seconds.
 Transformation of t(ab,ij) amplitudes required    0.0 seconds.
 Contraction of t(mu nu,ij) with AO integrals required    0.0 seconds.
 Backtransformation of t(mu nu,ij) increments required    0.0 seconds.
 Construction of Hbar required (CPU/WALL):             0.00/       0.00 seconds.
 Amplitude changes are:
 -------------------------------------------------------------------
              Spin      RMS          Max.      Max. change for
  Amplitude   Case     Change       Change       i    j    a    b
 -------------------------------------------------------------------
     T1        AA    0.0034846202 0.0050475489    1         2
     T2        AB    0.0019173243-0.0258027098    1    1    6    6
 -------------------------------------------------------------------
 The total correlation energy is -0.035632015279 a.u.
 Convergence information after     1 iterations: 
 Largest element of residual vector : -0.25802710E-01.
 Largest element of DIIS residual   : -0.25802710E-01.
 Iteration Nr.   1 required (CPU/WALL):                0.00/       0.00 seconds.
 >>>>>>>>>>>>>>>>>>>>>>>>>>>>>>>>>>>>>>>>>>>>>>>>>>>>>>>>>>>>>>>>>>>>>>>>>>>>>>>
 Iteration Nr.   2 started:
 Generation of Intermediates required (CPU/WALL):      0.00/       0.00 seconds.
 Transformation of t(ab,ij) amplitudes required    0.0 seconds.
 Contraction of t(mu nu,ij) with AO integrals required    0.0 seconds.
 Backtransformation of t(mu nu,ij) increments required    0.0 seconds.
 Construction of Hbar required (CPU/WALL):             0.00/       0.00 seconds.
 Amplitude changes are:
 -------------------------------------------------------------------
              Spin      RMS          Max.      Max. change for
  Amplitude   Case     Change       Change       i    j    a    b
 -------------------------------------------------------------------
     T1        AA    0.0015529972 0.0022859775    1         3
     T2        AB    0.0008018995-0.0113449864    1    1    6    6
 -------------------------------------------------------------------
 The total correlation energy is -0.037798612850 a.u.
 Convergence information after     2 iterations: 
 Largest element of residual vector : -0.11344986E-01.
 Largest element of DIIS residual   :  0.27663791E-02.
 Iteration Nr.   2 required (CPU/WALL):                0.00/       0.00 seconds.
 >>>>>>>>>>>>>>>>>>>>>>>>>>>>>>>>>>>>>>>>>>>>>>>>>>>>>>>>>>>>>>>>>>>>>>>>>>>>>>>
 Iteration Nr.   3 started:
 Generation of Intermediates required (CPU/WALL):      0.00/       0.00 seconds.
 Transformation of t(ab,ij) amplitudes required    0.0 seconds.
 Contraction of t(mu nu,ij) with AO integrals required    0.0 seconds.
 Backtransformation of t(mu nu,ij) increments required    0.0 seconds.
 Construction of Hbar required (CPU/WALL):             0.00/       0.00 seconds.
 Amplitude changes are:
 -------------------------------------------------------------------
              Spin      RMS          Max.      Max. change for
  Amplitude   Case     Change       Change       i    j    a    b
 -------------------------------------------------------------------
     T1        AA    0.0001159489 0.0002144712    1         3
     T2        AB    0.0001003459-0.0012493256    1    1    6    6
 -------------------------------------------------------------------
 The total correlation energy is -0.039193053233 a.u.
 Convergence information after     3 iterations: 
 Largest element of residual vector : -0.12493256E-02.
 Largest element of DIIS residual   : -0.34500122E-03.
 Iteration Nr.   3 required (CPU/WALL):                0.00/       0.00 seconds.
 >>>>>>>>>>>>>>>>>>>>>>>>>>>>>>>>>>>>>>>>>>>>>>>>>>>>>>>>>>>>>>>>>>>>>>>>>>>>>>>
 Iteration Nr.   4 started:
 Generation of Intermediates required (CPU/WALL):      0.00/       0.00 seconds.
 Transformation of t(ab,ij) amplitudes required    0.0 seconds.
 Contraction of t(mu nu,ij) with AO integrals required    0.0 seconds.
 Backtransformation of t(mu nu,ij) increments required    0.0 seconds.
 Construction of Hbar required (CPU/WALL):             0.00/       0.00 seconds.
 Amplitude changes are:
 -------------------------------------------------------------------
              Spin      RMS          Max.      Max. change for
  Amplitude   Case     Change       Change       i    j    a    b
 -------------------------------------------------------------------
     T1        AA    0.0000269696-0.0000525592    1         2
     T2        AB    0.0000081798-0.0000844184    1    1    6    6
 -------------------------------------------------------------------
 The total correlation energy is -0.039294840274 a.u.
 Convergence information after     4 iterations: 
 Largest element of residual vector : -0.84418399E-04.
 Largest element of DIIS residual   :  0.33929908E-04.
 Iteration Nr.   4 required (CPU/WALL):                0.00/       0.00 seconds.
 >>>>>>>>>>>>>>>>>>>>>>>>>>>>>>>>>>>>>>>>>>>>>>>>>>>>>>>>>>>>>>>>>>>>>>>>>>>>>>>
 Iteration Nr.   5 started:
 Generation of Intermediates required (CPU/WALL):      0.00/       0.00 seconds.
 Transformation of t(ab,ij) amplitudes required    0.0 seconds.
 Contraction of t(mu nu,ij) with AO integrals required    0.0 seconds.
 Backtransformation of t(mu nu,ij) increments required    0.0 seconds.
 Construction of Hbar required (CPU/WALL):             0.00/       0.00 seconds.
 Amplitude changes are:
 -------------------------------------------------------------------
              Spin      RMS          Max.      Max. change for
  Amplitude   Case     Change       Change       i    j    a    b
 -------------------------------------------------------------------
     T1        AA    0.0000018236-0.0000034209    1         2
     T2        AB    0.0000008031 0.0000077242    1    1    7    6
 -------------------------------------------------------------------
 The total correlation energy is -0.039293584067 a.u.
 Convergence information after     5 iterations: 
 Largest element of residual vector :  0.77242027E-05.
 Largest element of DIIS residual   :  0.24077790E-05.
 Iteration Nr.   5 required (CPU/WALL):                0.00/       0.00 seconds.
 Largest T1 amplitudes for spin case AA:
    i       a                 i       a                 i       a    
 -----------------------------------------------------------------------------
 [  1       3    ] 0.00902 [  1       2    ] 0.00844 [  1       1    ] 0.00000
 [  1       1    ] 0.00000 [  1       1    ] 0.00000 [  1       1    ] 0.00000
 [  1       1    ] 0.00000 [  1       1    ] 0.00000 [  1       1    ] 0.00000
 [  1       1    ] 0.00000 [  1       1    ] 0.00000 [  1       1    ] 0.00000
 [  1       1    ] 0.00000 [  1       1    ] 0.00000 [  1       1    ] 0.00000
 -----------------------------------------------------------------------------
 Norm of T1AA vector (        2 symmetry allowed elements):  0.0123518080.
 -----------------------------------------------------------------------------
 Largest T2 amplitudes for spin case AB:
        _       _                 _       _                 _       _
    i   j   a   b             i   j   a   b             i   j   a   b
 -----------------------------------------------------------------------------
 [  1   1   6   6]-0.11601 [  1   1   7   6]-0.05155 [  1   1   6   7]-0.05155
 [  1   1   2   2]-0.04579 [  1   1   4   4]-0.03593 [  1   1   5   5]-0.03593
 [  1   1   7   7]-0.03399 [  1   1   3   3]-0.01381 [  1   1   8   6]-0.01006
 [  1   1   6   8]-0.01006 [  1   1   9   9]-0.00929 [  1   1  10  10]-0.00929
 [  1   1   8   7]-0.00903 [  1   1   7   8]-0.00903 [  1   1   3   2] 0.00818
 -----------------------------------------------------------------------------
 Norm of T2AB vector (       17 symmetry allowed elements):  0.1597414760.
 -----------------------------------------------------------------------------
 >>>>>>>>>>>>>>>>>>>>>>>>>>>>>>>>>>>>>>>>>>>>>>>>>>>>>>>>>>>>>>>>>>>>>>>>>>>>>>>
 Iteration Nr.   6 started:
 Generation of Intermediates required (CPU/WALL):      0.00/       0.00 seconds.
 Transformation of t(ab,ij) amplitudes required    0.0 seconds.
 Contraction of t(mu nu,ij) with AO integrals required    0.0 seconds.
 Backtransformation of t(mu nu,ij) increments required    0.0 seconds.
 Construction of Hbar required (CPU/WALL):             0.00/       0.00 seconds.
 Amplitude changes are:
 -------------------------------------------------------------------
              Spin      RMS          Max.      Max. change for
  Amplitude   Case     Change       Change       i    j    a    b
 -------------------------------------------------------------------
     T1        AA    0.0000002353-0.0000004471    1         2
     T2        AB    0.0000001007-0.0000011620    1    1    6    6
 -------------------------------------------------------------------
 The total correlation energy is -0.039292618774 a.u.
 Convergence information after     6 iterations: 
 Largest element of residual vector : -0.11619802E-05.
 Largest element of DIIS residual   : -0.66441999E-06.
 Iteration Nr.   6 required (CPU/WALL):                0.00/       0.00 seconds.
 >>>>>>>>>>>>>>>>>>>>>>>>>>>>>>>>>>>>>>>>>>>>>>>>>>>>>>>>>>>>>>>>>>>>>>>>>>>>>>>
 Iteration Nr.   7 started:
 Generation of Intermediates required (CPU/WALL):      0.00/       0.00 seconds.
 Transformation of t(ab,ij) amplitudes required    0.0 seconds.
 Contraction of t(mu nu,ij) with AO integrals required    0.0 seconds.
 Backtransformation of t(mu nu,ij) increments required    0.0 seconds.
 Construction of Hbar required (CPU/WALL):             0.00/       0.00 seconds.
 Amplitude changes are:
 -------------------------------------------------------------------
              Spin      RMS          Max.      Max. change for
  Amplitude   Case     Change       Change       i    j    a    b
 -------------------------------------------------------------------
     T1        AA    0.0000000965-0.0000001657    1         2
     T2        AB    0.0000000158 0.0000001819    1    1    7    7
 -------------------------------------------------------------------
 The total correlation energy is -0.039292681930 a.u.
 Convergence information after     7 iterations: 
 Largest element of residual vector :  0.18191020E-06.
 Largest element of DIIS residual   : -0.11336300E-06.
 Iteration Nr.   7 required (CPU/WALL):                0.00/       0.00 seconds.
 >>>>>>>>>>>>>>>>>>>>>>>>>>>>>>>>>>>>>>>>>>>>>>>>>>>>>>>>>>>>>>>>>>>>>>>>>>>>>>>
 Iteration Nr.   8 started:
 Generation of Intermediates required (CPU/WALL):      0.00/       0.00 seconds.
 Transformation of t(ab,ij) amplitudes required    0.0 seconds.
 Contraction of t(mu nu,ij) with AO integrals required    0.0 seconds.
 Backtransformation of t(mu nu,ij) increments required    0.0 seconds.
 Construction of Hbar required (CPU/WALL):             0.00/       0.00 seconds.
 Amplitude changes are:
 -------------------------------------------------------------------
              Spin      RMS          Max.      Max. change for
  Amplitude   Case     Change       Change       i    j    a    b
 -------------------------------------------------------------------
     T1        AA    0.0000000167-0.0000000282    1         2
     T2        AB    0.0000000022 0.0000000239    1    1    7    7
 -------------------------------------------------------------------
 The total correlation energy is -0.039292674874 a.u.
 Convergence information after     8 iterations: 
 Largest element of residual vector : -0.28238148E-07.
 Largest element of DIIS residual   :  0.87950488E-08.
 Amplitude equations converged in     8 iterations.
 Iteration Nr.   8 required (CPU/WALL):                0.00/       0.00 seconds.
 The total correlation energy is -0.039292671536 a.u.
 
 Summary of iterative solution of CC equations:
 -----------------------------------------------------------
                 Correlation           Total
  Iteration        Energy              Energy
 -----------------------------------------------------------
      0     -0.0289528251492513    -1.136008287950   DIIS 
      1     -0.0356320152790845    -1.142687478080   DIIS 
      2     -0.0377986128498091    -1.144854075651   DIIS 
      3     -0.0391930532334811    -1.146248516034   DIIS 
      4     -0.0392948402743789    -1.146350303075   DIIS 
      5     -0.0392935840674857    -1.146349046868   DIIS 
      6     -0.0392926187740546    -1.146348081575   DIIS 
      7     -0.0392926819302234    -1.146348144731   DIIS 
      8     -0.0392926715361709    -1.146348134337   DIIS 
 -----------------------------------------------------------
 A miracle come to pass. The CC iterations have converged.
 
 Non-iterative perturbative treatment of triple
 excitations using the CCSD(T) method ...
 PARA: timing for (T)                0.00 seconds on CPU No.   0
 ... required                        (CPU/WALL):       0.00/       0.00 seconds.
--------------------------------------------------------------------------------
  HF-SCF energy                             -1.107055462801
  MP2 correlation energy                    -0.028952825149
  MP2 energy                                -1.136008287950
  CCSD correlation energy                   -0.039292671536
  CCSD energy                               -1.146348134337
--------------------------------------------------------------------------------
  CCSD(T) energy                            -1.146348134337
--------------------------------------------------------------------------------
 @CHECKOUT-I, Total execution time (CPU/WALL):        0.01/       0.01 seconds.
--executable xecc finished with status     0 in        0.52 seconds (walltime).
 --invoking executable--
/work/umbilias/work/software/cfour/cfour_v2.1_openmpi1.8.4_Intel14/cfour-public-master/bin/xlcc
 @GETMEM-I,  Allocated     762 MB of main memory.
 Lambda equations are solved for CCSD(T)
 AO based algorithm is used. 
 The total correlation energy is -0.039303599880 a.u.
 Starting iterative solution of the Lambda equations.
 The DIIS procedure is used to accelerate convergence.
 5 expansion vectors are used in the DIIS extrapolation.
 Convergence criterium is 10**(-7).
 Maximum number of iterations is 100.
 The total correlation energy is -0.038550780253 a.u.
 Convergence information after     1 iterations: 
 Largest element of residual vector :  0.17887940E-02.
 Largest element of DIIS residual   :  0.17887940E-02.
 The total correlation energy is -0.038390433202 a.u.
 Convergence information after     2 iterations: 
 Largest element of residual vector :  0.61857572E-03.
 Largest element of DIIS residual   :  0.26144803E-03.
 The total correlation energy is -0.038323122780 a.u.
 Convergence information after     3 iterations: 
 Largest element of residual vector :  0.16726619E-03.
 Largest element of DIIS residual   : -0.50177364E-04.
 The total correlation energy is -0.038304454929 a.u.
 Convergence information after     4 iterations: 
 Largest element of residual vector :  0.18814063E-04.
 Largest element of DIIS residual   :  0.44544769E-05.
 The total correlation energy is -0.038303754588 a.u.
 Convergence information after     5 iterations: 
 Largest element of residual vector :  0.13882660E-05.
 Largest element of DIIS residual   : -0.33212413E-06.
 The total correlation energy is -0.038303790271 a.u.
 Convergence information after     6 iterations: 
 Largest element of residual vector : -0.10936125E-06.
 Largest element of DIIS residual   : -0.76570969E-07.
 The total correlation energy is -0.038303795611 a.u.
 Convergence information after     7 iterations: 
 Largest element of residual vector : -0.28394504E-07.
 Largest element of DIIS residual   :  0.10278946E-07.
 Amplitude equations converged in     7 iterations.
 The total correlation energy is -0.038303796965 a.u.
 Summary of iterative solution of CC equations 
 -----------------------------------------------------------
                 Correlation           Total
  Iteration        Energy              Energy
 -----------------------------------------------------------
      0     -0.0393035998803134    -1.146359062681   DIIS 
      1     -0.0385507802533600    -1.145606243054   DIIS 
      2     -0.0383904332023372    -1.145445896003   DIIS 
      3     -0.0383231227799523    -1.145378585581   DIIS 
      4     -0.0383044549292619    -1.145359917730   DIIS 
      5     -0.0383037545881775    -1.145359217389   DIIS 
      6     -0.0383037902713791    -1.145359253072   DIIS 
      7     -0.0383037969649622    -1.145359259766   DIIS 
 -----------------------------------------------------------
 A miracle come to pass. The CC iterations have converged.
 @CHECKOUT-I, Total execution time (CPU/WALL):        0.01/       0.01 seconds.
--executable xlcc finished with status     0 in        0.52 seconds (walltime).
 --invoking executable--
/work/umbilias/work/software/cfour/cfour_v2.1_openmpi1.8.4_Intel14/cfour-public-master/bin/xdens
 @GETMEM-I,  Allocated     762 MB of main memory.
  CCSD(T) density and intermediates are calculated.
  The perturbed orbitals are chosen canonical.
  Direct algorithm used for all contributions involving G(AB,CD).
  required core                     44
  available core               99590258
 rdaoijkl2 libr
  processed                     46  ao basis integrals from 
                     1  buffers.
 rdaoijkl2 libr
  processed                     99  ao basis integrals from 
                     1  buffers.
 rdaoijkl2 libr
  processed                     90  ao basis integrals from 
                     1  buffers.
 rdaoijkl2 libr
  processed                     57  ao basis integrals from 
                     1  buffers.
  W(abef) AB contribution =  0.0185917890 a.u.
  required core                     44
  available core               99590258
 rdaoijkl2 libr
  processed                     46  ao basis integrals from 
                     1  buffers.
 rdaoijkl2 libr
  processed                     99  ao basis integrals from 
                     1  buffers.
 rdaoijkl2 libr
  processed                     90  ao basis integrals from 
                     1  buffers.
 rdaoijkl2 libr
  processed                     57  ao basis integrals from 
                     1  buffers.
  W(abef) AB contribution =  0.0176677519 a.u.
 Para: T
                     1                     1
                     2                     2
                     3                     3
                     5                     5
                     6                     6
                     7                     7
  processed                     46  ao basis integrals from 
                     1  buffers.
  processed                     99  ao basis integrals from 
                     1  buffers.
  processed                     90  ao basis integrals from 
                     1  buffers.
  processed                     57  ao basis integrals from 
                     1  buffers.
  The iterative expansion of D(ai) converged after   2 iterations.
  ----------------------------------------------------------------------
                 Natural orbital occupation numbers
  ----------------------------------------------------------------------
  1.95025  0.03938  0.00445  0.00252  0.00252  0.00027  0.00026  0.00017
  0.00017  0.00002
  Trace of density matrix :   2.0000000000.
  ----------------------------------------------------------------------
  Density calculation successfully completed.
 @CHECKOUT-I, Total execution time (CPU/WALL):        0.01/       0.01 seconds.
--executable xdens finished with status     0 in        0.52 seconds (walltime).
 --invoking executable--
/work/umbilias/work/software/cfour/cfour_v2.1_openmpi1.8.4_Intel14/cfour-public-master/bin/xanti
 @GETMEM-I,  Allocated     762 MB of main memory.
 CCSD(T) MO gammas will be sorted to Mulliken order.
 @CHECKOUT-I, Total execution time (CPU/WALL):        0.00/       0.00 seconds.
--executable xanti finished with status     0 in        0.52 seconds (walltime).
 --invoking executable--
/work/umbilias/work/software/cfour/cfour_v2.1_openmpi1.8.4_Intel14/cfour-public-master/bin/xbcktrn
 @GETMEM-I,  Allocated     762 MB of main memory.
 @CHECKOUT-I, Total execution time (CPU/WALL):        0.00/       0.00 seconds.
--executable xbcktrn finished with status     0 in        0.51 seconds (walltime).
 --invoking executable--
/work/umbilias/work/software/cfour/cfour_v2.1_openmpi1.8.4_Intel14/cfour-public-master/bin/xvdint
 @GETMEM-I,  Allocated     762 MB of main memory.
 One- and two-electron integral derivatives are calculated
 for RHF-CC/MBPT gradients and dipole moments.
 Spherical gaussians are used.

                     Kinetic energy integral gradient
                     --------------------------------

                         H #1 z    -0.5056906974


 H #1 1     0.0000000000            0.0000000000           -0.2528453487
 H #1 2     0.0000000000            0.0000000000            0.2528453487



                   Nuclear attraction integral gradient
                   ------------------------------------

                         H #1 z     2.2835010580


 H #1 1     0.0000000000            0.0000000000            1.1417505290
 H #1 2     0.0000000000            0.0000000000           -1.1417505290



                      Reorthonormalization gradient
                      -----------------------------

                         H #1 z    -0.3966541734


 H #1 1     0.0000000000            0.0000000000           -0.1983270867
 H #1 2     0.0000000000            0.0000000000            0.1983270867


 Evaluation of 1e integral derivatives required    0.23 seconds.
 Evaluation of 2el integral derivatives

                      Two-electron integral gradient
                      ------------------------------

                         H #1 z    -0.6075863828


 H #1 1     0.0000000000            0.0000000000           -0.3037931914
 H #1 2     0.0000000000            0.0000000000            0.3037931914


 Evaluation of 2e integral derivatives required    0.00 seconds.

                            Molecular gradient
                            ------------------

                         H #1 z     0.1633114648


 H #1 1     0.0000000000            0.0000000000            0.0816557324
 H #1 2     0.0000000000            0.0000000000           -0.0816557324


  Molecular gradient norm 0.163E+00

                           Total dipole moment
                           -------------------

                     All components zero by symmetry

  Conversion factor used: 1 a.u. =   2.54174691 Debye 


 @CHECKOUT-I, Total execution time (CPU/WALL):        0.03/       0.03 seconds.
--executable xvdint finished with status     0 in        0.55 seconds (walltime).
 --invoking executable--
/work/umbilias/work/software/cfour/cfour_v2.1_openmpi1.8.4_Intel14/cfour-public-master/bin/xjoda
   JODA beginning optimization cycle #  1.
  igrd and ihes are                      0                     0
  gradient from JOBARC 
   0.000000000000000   0.000000000000000   0.081655732391907
   0.000000000000000   0.000000000000000  -0.081655732391907
 
   Internal coordinate energy gradients (atomic units): 
                     R                 dV/dR
 [R    ]    1.810358006799614    0.081655732391907
                     0                     0                     0 ****
   Optimization cycle  1.  Updating structure with Newton-Raphson step.
  @EFOL-I, Current internal coordinate Hessian written to FCMINT.
   Hessian matrix in totally symmetric symmetry coordinates: 
              R    
  R          1.000000
   The eigenvectors of the Hessian matrix: 
                   1
  R          1.000000
   The eigenvalues of the Hessian matrix: 
     1.00000
   Gradients along Hessian eigenvectors: 
     0.08166
   There are  0 negative eigenvalues.
   Summary of Optimization Cycle: 
   The maximum unscaled step is:    0.08166.
   Scale factor set to:  1.00000.
   Forces are in hartree/bohr and hartree/radian.
   Parameter values are in Angstroms and degrees.
--------------------------------------------------------------------------
  Parameter     dV/dR           Step          Rold            Rnew
--------------------------------------------------------------------------
    R       0.0816557324   -0.0432103525    0.9580001961    0.9147898436
--------------------------------------------------------------------------
  Minimum force:  0.081655732 / RMS force:  0.081655732
 Updating structure...
   Rotational constants (in cm-1): 
         39.9759614721            39.9759614721
   Rotational constants (in MHz): 
    1198449.3429617493       1198449.3429617493


 ----------------------------------------------------------------
         Coordinates used in calculation (QCOMP) 
 ----------------------------------------------------------------
 Z-matrix   Atomic            Coordinates (in bohr)
  Symbol    Number           X              Y              Z
 ----------------------------------------------------------------
     H         1        -0.00000000     0.00000000     0.86435114
     H         1         0.00000000     0.00000000    -0.86435114
 ----------------------------------------------------------------
 
   Interatomic distance matrix (Angstroms) 
 
                 H             H    
                [ 1]        [ 2]
  H    [ 1]     0.00000
  H    [ 2]     0.91479     0.00000
 rotcon2
   Rotational constants (in cm-1): 
         39.9759614721             0.0000000000
   Rotational constants (in MHz): 
    1198449.3429617493             0.0000000000
  There are   10 basis functions.
 @CHECKOUT-I, Total execution time (CPU/WALL):        0.01/       0.02 seconds.
--executable xjoda finished with status     0 in        0.53 seconds (walltime).
 --invoking executable--
/work/umbilias/work/software/cfour/cfour_v2.1_openmpi1.8.4_Intel14/cfour-public-master/bin/xvmol
 PARALLEL VERSION OF MOLECULE STARTED ON NODE            0 :
********************************************************************************
                    INPUT FROM MOL FILE
********************************************************************************
INTGRL        1    0    1    0    0    0    0    0    0                         
         *** CFOUR Program System (Release V0.1) ***                            
O                                                                               
    1    3 X  Y   Z   0.10E-08              0    0                              
   9999.00      3.00                                                            
          1.00000000    1    2    1    1                                        
H #1  -0.000000000000000   0.000000000000000   0.864351137203853                
    4    2                                                                      
   19.2406000000000       3.282800000000000E-002  0.000000000000000E+000        
   2.89920000000000       0.231208000000000       0.000000000000000E+000        
  0.653400000000000       0.817238000000000       0.000000000000000E+000        
  0.177600000000000       0.000000000000000E+000   1.00000000000000             
    1    1                                                                      
  0.700000000000000        1.00000000000000                                     
FINISH                                                                          
 
********************************************************************************

Running with 1 threads/proc

 ONE- AND TWO-ELECTRON INTEGRALS OVER SYMMETRY-ADAPTED AOS ARE CALCULATED.

  SPHERICAL HARMONICS ARE USED.
  
  INTEGRALS LESS THAN  0.10E-13 ARE NEGLECTED.

  NUCLEAR REPULSION ENERGY :    0.5784686090 A.U.
  @MOLECU-I, ONE ELECTRON INTEGRALS (CPU/WALL):        0.00/       0.00 SECONDS.
  @TWOEL-I,         46 INTEGRALS OF SYMMETRY TYPE  I I I I
  @TWOEL-I,         99 INTEGRALS OF SYMMETRY TYPE  I J I J
  @TWOEL-I,         90 INTEGRALS OF SYMMETRY TYPE  I I J J
  @TWOEL-I,         57 INTEGRALS OF SYMMETRY TYPE  I J K L
  @TWOEL-I, TOTAL NUMBER OF 2-E INTEGRALS        292.
  @MOLECU-I, TWO ELECTRON INTEGRALS (CPU/WALL):        0.00/       0.00 SECONDS.
 @CHECKOUT-I, Total execution time (CPU/WALL):        0.01/       0.01 seconds.
--executable xvmol finished with status     0 in        0.52 seconds (walltime).
 --invoking executable--
/work/umbilias/work/software/cfour/cfour_v2.1_openmpi1.8.4_Intel14/cfour-public-master/bin/xvmol2ja
 @GETMEM-I,  Allocated     762 MB of main memory.
 @CHECKOUT-I, Total execution time (CPU/WALL):        0.00/       0.00 seconds.
--executable xvmol2ja finished with status     0 in        0.51 seconds (walltime).
  a 
 --invoking executable--
/work/umbilias/work/software/cfour/cfour_v2.1_openmpi1.8.4_Intel14/cfour-public-master/bin/xvdint
 @GETMEM-I,  Allocated     762 MB of main memory.
 One- and two-electron integral derivatives are calculated
 for RHF-CC/MBPT gradients and dipole moments.
 Spherical gaussians are used.
 Evaluated one-electron integrals:   dipole integrals
  keyword missing for gradient integrals in sfree
  pVp integrals for spin-free DHF
  derivative pVp integrals for spin-free DHF
 Evaluation of 1e integral derivatives required    0.46 seconds.
 Evaluation of 2e integral derivatives required    0.00 seconds.


 @CHECKOUT-I, Total execution time (CPU/WALL):        0.26/       0.26 seconds.
--executable xvdint finished with status     0 in        0.74 seconds (walltime).
 --invoking executable--
/work/umbilias/work/software/cfour/cfour_v2.1_openmpi1.8.4_Intel14/cfour-public-master/bin/xvpropx2c
 @GETMEM-I,  Allocated     762 MB of main memory.
 generating sfx2c-1e gradient integrals
 end generating sfx2c-1e gradient integrals
 @CHECKOUT-I, Total execution time (CPU/WALL):        0.01/       0.01 seconds.
--executable xvpropx2c finished with status     0 in        0.52 seconds (walltime).
 --invoking executable--
/work/umbilias/work/software/cfour/cfour_v2.1_openmpi1.8.4_Intel14/cfour-public-master/bin/xvmol2ja
 @GETMEM-I,  Allocated     762 MB of main memory.
 @CHECKOUT-I, Total execution time (CPU/WALL):        0.00/       0.00 seconds.
--executable xvmol2ja finished with status     0 in        0.51 seconds (walltime).
 --invoking executable--
/work/umbilias/work/software/cfour/cfour_v2.1_openmpi1.8.4_Intel14/cfour-public-master/bin/xvscf
  There are   10 functions in the AO basis.

  There are 8 irreducible representations.

       Irrep        # of functions
         1                  3
         2                  1
         3                  1
         4                  0
         5                  3
         6                  1
         7                  1
         8                  0


  Parameters for SCF calculation: 
        SCF reference function:  RHF  
  Maximum number of iterations:  150
     Full symmetry point group: DXh 
     Computational point group: D2h 
        Initial density matrix: MOREAD                 
     SCF convergence tolerance: 10**(- 7)
  DIIS convergence acceleration:  ON
          Latest start for DIIS:   8
                     DIIS order:   6

     Alpha population by irrep:   1    0    0    0    0    0    0    0
      Beta population by irrep:   1    0    0    0    0    0    0    0


  Memory information:      53676 words required.
  Fock matrices are constructed from AO integral file.
 @GETMEM-I,  Allocated       0 MB of main memory.
  Initialization and symmetry analysis required      0.192 seconds.

 total no. of electrons in initial guess :  0.000000000000000E+000
  --------------------------------------------------------------------
  Iteration         Total Energy            Largest Density Difference
  --------------------------------------------------------------------
       0            -1.131371183399681              0.0000000000D+00
   current occupation vector 
     1  0  0  0  0  0  0  0
     1  0  0  0  0  0  0  0
       1            -1.114246687239936              0.8806976008D-02
   current occupation vector 
     1  0  0  0  0  0  0  0
     1  0  0  0  0  0  0  0
       2            -1.114268007356518              0.2291256522D-02
   current occupation vector 
     1  0  0  0  0  0  0  0
     1  0  0  0  0  0  0  0
       3            -1.114268479947135              0.4009699066D-03
   current occupation vector 
     1  0  0  0  0  0  0  0
     1  0  0  0  0  0  0  0
       4            -1.114268480075927              0.3608662436D-05
   current occupation vector 
     1  0  0  0  0  0  0  0
     1  0  0  0  0  0  0  0

  SCF has converged.

 Density matrix saved to file den.dat
 total electron number:   2.00000000000000     
     E(SCF)=        -1.114268480075928              0.5147370696D-08

  Eigenvector printing suppressed.

 @PUTMOS-I, Writing converged MOs to NEWMOS. 
 @PUTMOS-I, Symmetry   1 Full Blocks  0 Partial Blocksize   3
 @PUTMOS-I, Symmetry   2 Full Blocks  0 Partial Blocksize   1
 @PUTMOS-I, Symmetry   3 Full Blocks  0 Partial Blocksize   1
 @PUTMOS-I, Symmetry   4 Full Blocks  0 Partial Blocksize   0
 @PUTMOS-I, Symmetry   5 Full Blocks  0 Partial Blocksize   3
 @PUTMOS-I, Symmetry   6 Full Blocks  0 Partial Blocksize   1
 @PUTMOS-I, Symmetry   7 Full Blocks  0 Partial Blocksize   1
 @PUTMOS-I, Symmetry   8 Full Blocks  0 Partial Blocksize   0
 @PUTMOS-I, NEWMOS already exists and will be deleted. 
 @PUTFOCK-I, Writing converged Fock matrix to NEWFOCK. 
 @PUTFOCK-I, Symmetry   1 Full Blocks  0 Partial Blocksize   3
 @PUTFOCK-I, Symmetry   2 Full Blocks  0 Partial Blocksize   1
 @PUTFOCK-I, Symmetry   3 Full Blocks  0 Partial Blocksize   1
 @PUTFOCK-I, Symmetry   4 Full Blocks  0 Partial Blocksize   0
 @PUTFOCK-I, Symmetry   5 Full Blocks  0 Partial Blocksize   3
 @PUTFOCK-I, Symmetry   6 Full Blocks  0 Partial Blocksize   1
 @PUTFOCK-I, Symmetry   7 Full Blocks  0 Partial Blocksize   1
 @PUTFOCK-I, Symmetry   8 Full Blocks  0 Partial Blocksize   0
 @PUTFOCK-I, NEWFOCK already exists and will be deleted. 


 
  ORBITAL EIGENVALUES (ALPHA)  (1H = 27.2113834 eV)

       MO #        E(hartree)               E(eV)           FULLSYM    COMPSYM
       ----   --------------------   --------------------   -------   ---------
    1     1          -0.5418213388         -14.7437081837    SGg+        Ag (1)
  +++++++++++++++++++++++++++++++++++++++++++++++++++++++++++++++++++++++++++++
    2     6           0.2127293937           5.7886610919    SGu+       B1u (5)
    3     2           0.8992086997          24.4687126850    SGg+        Ag (1)
    4     7           1.1505020878          31.3067534141    SGu+       B1u (5)
    5     5           1.2400540672          33.7435866586    PIu        B2u (3)
    6     4           1.2400540672          33.7435866586    PIu        B3u (2)
    7     3           1.8183687061          49.4803280254    SGg+        Ag (1)
    8     9           1.8695147205          50.8720818328    PIg        B3g (6)
    9    10           1.8695147205          50.8720818328    PIg        B2g (7)
   10     8           2.8404050410          77.2913505811    SGu+       B1u (5)


  VSCF finished.

 @CHECKOUT-I, Total execution time (CPU/WALL):        0.01/       0.01 seconds.
--executable xvscf finished with status     0 in        0.52 seconds (walltime).
 --invoking executable--
/work/umbilias/work/software/cfour/cfour_v2.1_openmpi1.8.4_Intel14/cfour-public-master/bin/xvtran
 @GETMEM-I,  Allocated     762 MB of main memory.
  Partial RHF integral transformation
 ! shown number of AO integrals not right ! (in parallel version)
  Transformation of IIII integrals :
  1 pass through the AO integral file was required.
          46 AO integrals were read.
          15 MO integrals were written to HF2.
  Transformation of IIJJ integrals :
  1 pass through the AO integral file was required.
          90 AO integrals were read.
          30 MO integrals were written to HF2.
  Transformation of IJIJ integrals :
  1 pass through the AO integral file was required.
          99 AO integrals were read.
          36 MO integrals were written to HF2.
  Transformation of IJKL integrals :
  1 pass through the AO integral file was required.
          57 AO integrals were read.
          18 MO integrals were written to HF2.
  Summary of active molecular orbitals: 
------------------------------------------------------------------------
 
  Index      Eigenvalue    Symmetry    Index      Eigenvalue    Symmetry
------------------------------------------------------------------------
     1        -0.5418213        1         6         0.2127294        5
     2         0.8992087        1         7         1.1505021        5
     3         1.8183687        1         8         2.8404050        5
     4         1.2400541        2         9         1.8695147        6
     5         1.2400541        3        10         1.8695147        7
------------------------------------------------------------------------
 -0.541821338773290       0.899208699729581        1.81836870614389     
   1.24005406717520        1.24005406717520       0.212729393680321     
   1.15050208781678        2.84040504097022        1.86951472054755     
   1.86951472054755     
 @CHECKOUT-I, Total execution time (CPU/WALL):        0.00/       0.00 seconds.
--executable xvtran finished with status     0 in        0.52 seconds (walltime).
 --invoking executable--
/work/umbilias/work/software/cfour/cfour_v2.1_openmpi1.8.4_Intel14/cfour-public-master/bin/xintprc
 @GETMEM-I,  Allocated     762 MB of main memory.
  @GMOIAA-I, Processing MO integrals for spin case AA.
  @GMOIAA-I, Generation of integral list completed.
                      TYPE                NUMBER
                      ----               --------
                      PPPP                     0
                      PPPH                    70
                      PPHH                    13
                      PHPH                    13
                      PHHH                     2
                      HHHH                     1

                     TOTAL                    99

  @FORMT2-I, Second-order MP correlation energies:
            ------------------------------------------------
            E(SCF)                  =     -1.114268480076 a.u.
            E2(AA)                  =      0.000000000000 a.u.
            E2(AB)                  =     -0.028609454800 a.u.
            E2(TOT)                 =     -0.028609454800 a.u.
            Total MP2 energy        =     -1.142877934875 a.u.
            ------------------------------------------------
   Largest T2 amplitudes for spin case AB:
       _       _                 _       _                 _       _
   i   j   a   b             i   j   a   b             i   j   a   b
-----------------------------------------------------------------------------
[  1   1   6   6]-0.06402 [  1   1   2   2]-0.03841 [  1   1   7   6]-0.03106
[  1   1   6   7]-0.03106 [  1   1   4   4]-0.03082 [  1   1   5   5]-0.03082
[  1   1   7   7]-0.02843 [  1   1   3   3]-0.01535 [  1   1   9   9]-0.01150
[  1   1  10  10]-0.01150 [  1   1   8   8]-0.00846 [  1   1   8   7]-0.00802
[  1   1   7   8]-0.00802 [  1   1   8   6]-0.00523 [  1   1   6   8]-0.00523
-----------------------------------------------------------------------------
   Norm of T2AB vector (       17 symmetry allowed elements):  0.1049641387.
-----------------------------------------------------------------------------
 @CHECKOUT-I, Total execution time (CPU/WALL):        0.01/       0.01 seconds.
--executable xintprc finished with status     0 in        0.67 seconds (walltime).
  calling xecc 
 --invoking executable--
/work/umbilias/work/software/cfour/cfour_v2.1_openmpi1.8.4_Intel14/cfour-public-master/bin/xecc
 @GETMEM-I,  Allocated     762 MB of main memory.
 CCSD(T) energy will be calculated.
 AO based algorithm is used. 
 Largest T2 amplitudes for spin case AB:
        _       _                 _       _                 _       _
    i   j   a   b             i   j   a   b             i   j   a   b
 -----------------------------------------------------------------------------
 [  1   1   6   6]-0.06402 [  1   1   2   2]-0.03841 [  1   1   7   6]-0.03106
 [  1   1   6   7]-0.03106 [  1   1   4   4]-0.03082 [  1   1   5   5]-0.03082
 [  1   1   7   7]-0.02843 [  1   1   3   3]-0.01535 [  1   1   9   9]-0.01150
 [  1   1  10  10]-0.01150 [  1   1   8   8]-0.00846 [  1   1   8   7]-0.00802
 [  1   1   7   8]-0.00802 [  1   1   8   6]-0.00523 [  1   1   6   8]-0.00523
 -----------------------------------------------------------------------------
 Norm of T2AB vector (       17 symmetry allowed elements):  0.1049641387.
 -----------------------------------------------------------------------------
 The total correlation energy is -0.028609454800 a.u.
 Resorts of amplitudes and integrals (CPU/WALL):       0.00/       0.00 seconds.
 Starting iterative solution of the CC equations.
 The DIIS procedure is used to accelerate convergence.
 5 expansion vectors are used in the DIIS extrapolation.
 Convergence criterium is 10**(-7).
 Maximum number of iterations is 100.
 >>>>>>>>>>>>>>>>>>>>>>>>>>>>>>>>>>>>>>>>>>>>>>>>>>>>>>>>>>>>>>>>>>>>>>>>>>>>>>>
 Iteration Nr.   1 started:
 Generation of Intermediates required (CPU/WALL):      0.00/       0.00 seconds.
 Transformation of t(ab,ij) amplitudes required    0.0 seconds.
 Contraction of t(mu nu,ij) with AO integrals required    0.0 seconds.
 Backtransformation of t(mu nu,ij) increments required    0.0 seconds.
 Construction of Hbar required (CPU/WALL):             0.00/       0.00 seconds.
 Amplitude changes are:
 -------------------------------------------------------------------
              Spin      RMS          Max.      Max. change for
  Amplitude   Case     Change       Change       i    j    a    b
 -------------------------------------------------------------------
     T1        AA    0.0032165696 0.0047235655    1         2
     T2        AB    0.0018035845-0.0232538163    1    1    6    6
 -------------------------------------------------------------------
 The total correlation energy is -0.035108762825 a.u.
 Convergence information after     1 iterations: 
 Largest element of residual vector : -0.23253816E-01.
 Largest element of DIIS residual   : -0.23253816E-01.
 Iteration Nr.   1 required (CPU/WALL):                0.00/       0.00 seconds.
 >>>>>>>>>>>>>>>>>>>>>>>>>>>>>>>>>>>>>>>>>>>>>>>>>>>>>>>>>>>>>>>>>>>>>>>>>>>>>>>
 Iteration Nr.   2 started:
 Generation of Intermediates required (CPU/WALL):      0.00/       0.00 seconds.
 Transformation of t(ab,ij) amplitudes required    0.0 seconds.
 Contraction of t(mu nu,ij) with AO integrals required    0.0 seconds.
 Backtransformation of t(mu nu,ij) increments required    0.0 seconds.
[...]
 Amplitude changes are:
 -------------------------------------------------------------------
              Spin      RMS          Max.      Max. change for
  Amplitude   Case     Change       Change       i    j    a    b
 -------------------------------------------------------------------
     T1        AA    0.0000008485 0.0000016361    1         3
     T2        AB    0.0000003320 0.0000023849    1    1    2    2
 -------------------------------------------------------------------
 The total correlation energy is -0.035799730266 a.u.
 Convergence information after     5 iterations: 
 Largest element of residual vector :  0.23848848E-05.
 Largest element of DIIS residual   : -0.82077884E-06.
 Iteration Nr.   5 required (CPU/WALL):                0.00/       0.00 seconds.
 Largest T1 amplitudes for spin case AA:
    i       a                 i       a                 i       a    
 -----------------------------------------------------------------------------
 [  1       2    ] 0.00522 [  1       3    ] 0.00510 [  1       1    ] 0.00000
 [  1       1    ] 0.00000 [  1       1    ] 0.00000 [  1       1    ] 0.00000
 [  1       1    ] 0.00000 [  1       1    ] 0.00000 [  1       1    ] 0.00000
 [  1       1    ] 0.00000 [  1       1    ] 0.00000 [  1       1    ] 0.00000
 [  1       1    ] 0.00000 [  1       1    ] 0.00000 [  1       1    ] 0.00000
 -----------------------------------------------------------------------------
 Norm of T1AA vector (        2 symmetry allowed elements):  0.0072985979.
 -----------------------------------------------------------------------------
 Largest T2 amplitudes for spin case AB:
        _       _                 _       _                 _       _
    i   j   a   b             i   j   a   b             i   j   a   b
 -----------------------------------------------------------------------------
 [  1   1   6   6]-0.06986 [  1   1   2   2]-0.05225 [  1   1   7   6]-0.04341
 [  1   1   6   7]-0.04341 [  1   1   4   4]-0.04049 [  1   1   5   5]-0.04049
 [  1   1   7   7]-0.03720 [  1   1   3   3]-0.01209 [  1   1   8   7]-0.01101
 [  1   1   7   8]-0.01101 [  1   1   8   6]-0.00900 [  1   1   6   8]-0.00900
 [  1   1  10  10]-0.00890 [  1   1   9   9]-0.00890 [  1   1   3   2] 0.00841
 -----------------------------------------------------------------------------
 Norm of T2AB vector (       17 symmetry allowed elements):  0.1302088599.
 -----------------------------------------------------------------------------
 >>>>>>>>>>>>>>>>>>>>>>>>>>>>>>>>>>>>>>>>>>>>>>>>>>>>>>>>>>>>>>>>>>>>>>>>>>>>>>>
 Iteration Nr.   6 started:
 Generation of Intermediates required (CPU/WALL):      0.00/       0.00 seconds.
 Transformation of t(ab,ij) amplitudes required    0.0 seconds.
 Contraction of t(mu nu,ij) with AO integrals required    0.0 seconds.
 Backtransformation of t(mu nu,ij) increments required    0.0 seconds.
 Construction of Hbar required (CPU/WALL):             0.00/       0.00 seconds.
 Amplitude changes are:
 -------------------------------------------------------------------
              Spin      RMS          Max.      Max. change for
  Amplitude   Case     Change       Change       i    j    a    b
 -------------------------------------------------------------------
     T1        AA    0.0000000485 0.0000000965    1         2
     T2        AB    0.0000000303-0.0000003131    1    1    6    6
 -------------------------------------------------------------------
 The total correlation energy is -0.035799446908 a.u.
 Convergence information after     6 iterations: 
 Largest element of residual vector : -0.31306979E-06.
 Largest element of DIIS residual   : -0.14021509E-06.
 Iteration Nr.   6 required (CPU/WALL):                0.00/       0.00 seconds.
 >>>>>>>>>>>>>>>>>>>>>>>>>>>>>>>>>>>>>>>>>>>>>>>>>>>>>>>>>>>>>>>>>>>>>>>>>>>>>>>
 Iteration Nr.   7 started:
 Generation of Intermediates required (CPU/WALL):      0.00/       0.00 seconds.
 Transformation of t(ab,ij) amplitudes required    0.0 seconds.
 Contraction of t(mu nu,ij) with AO integrals required    0.0 seconds.
 Backtransformation of t(mu nu,ij) increments required    0.0 seconds.
 Construction of Hbar required (CPU/WALL):             0.00/       0.00 seconds.
 Amplitude changes are:
 -------------------------------------------------------------------
              Spin      RMS          Max.      Max. change for
  Amplitude   Case     Change       Change       i    j    a    b
 -------------------------------------------------------------------
     T1        AA    0.0000000125-0.0000000244    1         3
     T2        AB    0.0000000045 0.0000000347    1    1    7    7
 -------------------------------------------------------------------
 The total correlation energy is -0.035799475998 a.u.
 Convergence information after     7 iterations: 
 Largest element of residual vector :  0.34670137E-07.
 Largest element of DIIS residual   :  0.28450995E-07.
 Amplitude equations converged in     7 iterations.
 Iteration Nr.   7 required (CPU/WALL):                0.00/       0.00 seconds.
 The total correlation energy is -0.035799477103 a.u.
 
 Summary of iterative solution of CC equations:
 -----------------------------------------------------------
                 Correlation           Total
  Iteration        Energy              Energy
 -----------------------------------------------------------
      0     -0.0274671255530831    -1.158409435009   DIIS 
      1     -0.0334177283053038    -1.164360037761   DIIS 
      2     -0.0350151561762759    -1.165957465632   DIIS 
      3     -0.0357516378585044    -1.166693947314   DIIS 
      4     -0.0358005455541110    -1.166742855010   DIIS 
      5     -0.0357997302663382    -1.166742039722   DIIS 
      6     -0.0357994469082767    -1.166741756364   DIIS 
      7     -0.0357994771033601    -1.166741786559   DIIS 
 -----------------------------------------------------------
 A miracle come to pass. The CC iterations have converged.
 
 Non-iterative perturbative treatment of triple
 excitations using the CCSD(T) method ...
 PARA: timing for (T)                0.00 seconds on CPU No.   0
 ... required                        (CPU/WALL):       0.00/       0.00 seconds.
--------------------------------------------------------------------------------
  HF-SCF energy                             -1.130942309456
  MP2 correlation energy                    -0.027467125553
  MP2 energy                                -1.158409435009
  CCSD correlation energy                   -0.035799477103
  CCSD energy                               -1.166741786559
--------------------------------------------------------------------------------
  CCSD(T) energy                            -1.166741786559
--------------------------------------------------------------------------------
 @CHECKOUT-I, Total execution time (CPU/WALL):        0.01/       0.01 seconds.
--executable xecc finished with status     0 in        0.53 seconds (walltime).
 --invoking executable--
/work/umbilias/work/software/cfour/cfour_v2.1_openmpi1.8.4_Intel14/cfour-public-master/bin/xlcc
 @GETMEM-I,  Allocated     762 MB of main memory.
 Lambda equations are solved for CCSD(T)
 AO based algorithm is used. 
 The total correlation energy is -0.035803295135 a.u.
 Starting iterative solution of the Lambda equations.
 The DIIS procedure is used to accelerate convergence.
 5 expansion vectors are used in the DIIS extrapolation.
 Convergence criterium is 10**(-7).
 Maximum number of iterations is 100.
 The total correlation energy is -0.035333461516 a.u.
 Convergence information after     1 iterations: 
 Largest element of residual vector :  0.78944163E-03.
 Largest element of DIIS residual   :  0.78944163E-03.
 The total correlation energy is -0.035237336466 a.u.
 Convergence information after     2 iterations: 
 Largest element of residual vector :  0.22997047E-03.
 Largest element of DIIS residual   :  0.74019117E-04.
 The total correlation energy is -0.035204443501 a.u.
 Convergence information after     3 iterations: 
 Largest element of residual vector :  0.48549935E-04.
 Largest element of DIIS residual   :  0.20458315E-04.
 The total correlation energy is -0.035199221666 a.u.
 Convergence information after     4 iterations: 
 Largest element of residual vector :  0.79247011E-05.
 Largest element of DIIS residual   :  0.20027291E-05.
 The total correlation energy is -0.035199029666 a.u.
 Convergence information after     5 iterations: 
 Largest element of residual vector :  0.59049400E-06.
 Largest element of DIIS residual   : -0.87234939E-07.
 The total correlation energy is -0.035199032916 a.u.
 Convergence information after     6 iterations: 
 Largest element of residual vector : -0.25629081E-07.
 Largest element of DIIS residual   : -0.17797242E-07.
 Amplitude equations converged in     6 iterations.
 The total correlation energy is -0.035199033512 a.u.
 Summary of iterative solution of CC equations 
 -----------------------------------------------------------
                 Correlation           Total
  Iteration        Energy              Energy
 -----------------------------------------------------------
      0     -0.0358032951346269    -1.166745604590   DIIS 
      1     -0.0353334615159362    -1.166275770972   DIIS 
      2     -0.0352373364663353    -1.166179645922   DIIS 
      3     -0.0352044435005701    -1.166146752956   DIIS 
      4     -0.0351992216659128    -1.166141531122   DIIS 
      5     -0.0351990296661801    -1.166141339122   DIIS 
      6     -0.0351990335115541    -1.166141342967   DIIS 
 -----------------------------------------------------------
 A miracle come to pass. The CC iterations have converged.
 @CHECKOUT-I, Total execution time (CPU/WALL):        0.01/       0.01 seconds.
--executable xlcc finished with status     0 in        0.53 seconds (walltime).
 --invoking executable--
/work/umbilias/work/software/cfour/cfour_v2.1_openmpi1.8.4_Intel14/cfour-public-master/bin/xdens
 @GETMEM-I,  Allocated     762 MB of main memory.
  CCSD(T) density and intermediates are calculated.
  The perturbed orbitals are chosen canonical.
  Direct algorithm used for all contributions involving G(AB,CD).
  required core                     44
  available core               99590258
 rdaoijkl2 libr
  processed                     46  ao basis integrals from 
                     1  buffers.
 rdaoijkl2 libr
  processed                     99  ao basis integrals from 
                     1  buffers.
 rdaoijkl2 libr
  processed                     90  ao basis integrals from 
                     1  buffers.
 rdaoijkl2 libr
  processed                     57  ao basis integrals from 
                     1  buffers.
  W(abef) AB contribution =  0.0142425475 a.u.
  required core                     44
  available core               99590258
 rdaoijkl2 libr
  processed                     46  ao basis integrals from 
                     1  buffers.
 rdaoijkl2 libr
  processed                     99  ao basis integrals from 
                     1  buffers.
 rdaoijkl2 libr
  processed                     90  ao basis integrals from 
                     1  buffers.
 rdaoijkl2 libr
  processed                     57  ao basis integrals from 
                     1  buffers.
  W(abef) AB contribution =  0.0137687842 a.u.
 Para: T
                     1                     1
                     2                     2
                     3                     3
                     5                     5
                     6                     6
                     7                     7
  processed                     46  ao basis integrals from 
                     1  buffers.
  processed                     99  ao basis integrals from 
                     1  buffers.
  processed                     90  ao basis integrals from 
                     1  buffers.
  processed                     57  ao basis integrals from 
                     1  buffers.
  The iterative expansion of D(ai) converged after   2 iterations.
  ----------------------------------------------------------------------
                 Natural orbital occupation numbers
  ----------------------------------------------------------------------
  1.96666  0.02042  0.00572  0.00322  0.00322  0.00021  0.00021  0.00016
  0.00016  0.00001
  Trace of density matrix :   2.0000000000.
  ----------------------------------------------------------------------
  Density calculation successfully completed.
 @CHECKOUT-I, Total execution time (CPU/WALL):        0.01/       0.01 seconds.
--executable xdens finished with status     0 in        0.52 seconds (walltime).
 --invoking executable--
/work/umbilias/work/software/cfour/cfour_v2.1_openmpi1.8.4_Intel14/cfour-public-master/bin/xanti
 @GETMEM-I,  Allocated     762 MB of main memory.
 CCSD(T) MO gammas will be sorted to Mulliken order.
 @CHECKOUT-I, Total execution time (CPU/WALL):        0.00/       0.00 seconds.
--executable xanti finished with status     0 in        0.52 seconds (walltime).
 --invoking executable--
/work/umbilias/work/software/cfour/cfour_v2.1_openmpi1.8.4_Intel14/cfour-public-master/bin/xbcktrn
 @GETMEM-I,  Allocated     762 MB of main memory.
 @CHECKOUT-I, Total execution time (CPU/WALL):        0.00/       0.01 seconds.
--executable xbcktrn finished with status     0 in        0.53 seconds (walltime).
 --invoking executable--
/work/umbilias/work/software/cfour/cfour_v2.1_openmpi1.8.4_Intel14/cfour-public-master/bin/xvdint
 @GETMEM-I,  Allocated     762 MB of main memory.
 One- and two-electron integral derivatives are calculated
 for RHF-CC/MBPT gradients and dipole moments.
 Spherical gaussians are used.

                     Kinetic energy integral gradient
                     --------------------------------

                         H #1 z    -0.7291637825


 H #1 1     0.0000000000            0.0000000000           -0.3645818913
 H #1 2     0.0000000000            0.0000000000            0.3645818913



                   Nuclear attraction integral gradient
                   ------------------------------------

                         H #1 z     2.8713544852


 H #1 1     0.0000000000            0.0000000000            1.4356772426
 H #1 2     0.0000000000            0.0000000000           -1.4356772426



                      Reorthonormalization gradient
                      -----------------------------

                         H #1 z    -0.4559935278


 H #1 1     0.0000000000            0.0000000000           -0.2279967639
 H #1 2     0.0000000000            0.0000000000            0.2279967639


 Evaluation of 1e integral derivatives required    0.23 seconds.
 Evaluation of 2el integral derivatives

                      Two-electron integral gradient
                      ------------------------------

                         H #1 z    -0.6763904592


 H #1 1     0.0000000000            0.0000000000           -0.3381952296
 H #1 2     0.0000000000            0.0000000000            0.3381952296


 Evaluation of 2e integral derivatives required    0.00 seconds.

                            Molecular gradient
                            ------------------

                         H #1 z     0.0000099992


 H #1 1     0.0000000000            0.0000000000            0.0000049996
 H #1 2     0.0000000000            0.0000000000           -0.0000049996


  Molecular gradient norm 0.100E-04

                           Total dipole moment
                           -------------------

                     All components zero by symmetry

  Conversion factor used: 1 a.u. =   2.54174691 Debye 


 @CHECKOUT-I, Total execution time (CPU/WALL):        0.03/       0.03 seconds.
--executable xvdint finished with status     0 in        0.55 seconds (walltime).
 --invoking executable--
/work/umbilias/work/software/cfour/cfour_v2.1_openmpi1.8.4_Intel14/cfour-public-master/bin/xjoda
   JODA beginning optimization cycle #  6.
   Retrieving information from last optimization cycle.
  igrd and ihes are                      0                    -1
  gradient from JOBARC 
   0.000000000000000   0.000000000000000   0.000004999615533
   0.000000000000000   0.000000000000000  -0.000004999615533
 
   Internal coordinate energy gradients (atomic units): 
                     R                 dV/dR
 [R    ]    1.407356147392286    0.000004999615533
                     5                    -1                     0 ****
   Hessian from cycle  5 read.
   BFGS update using last two gradients and previous step.
   Optimization cycle  6.  Updating structure with Newton-Raphson step.
  @EFOL-I, Current internal coordinate Hessian written to FCMINT.
   Hessian matrix in totally symmetric symmetry coordinates: 
              R    
  R          0.381402
   The eigenvectors of the Hessian matrix: 
                   1
  R          1.000000
   The eigenvalues of the Hessian matrix: 
     0.38140
   Gradients along Hessian eigenvectors: 
     0.00000
   There are  0 negative eigenvalues.
   Summary of Optimization Cycle: 
   The maximum unscaled step is:    0.00001.
   Scale factor set to:  1.00000.
   Forces are in hartree/bohr and hartree/radian.
   Parameter values are in Angstroms and degrees.
--------------------------------------------------------------------------
  Parameter     dV/dR           Step          Rold            Rnew
--------------------------------------------------------------------------
    R       0.0000049996   -0.0000069367    0.7447407972    0.7447338604
--------------------------------------------------------------------------
  Minimum force:  0.000005000 / RMS force:  0.000005000
--------------------------------------------------------------------------------
   RMS gradient is below .10000E-04.
   Convergence criterion satisfied.  Optimization completed.
--------------------------------------------------------------------------------
   Interatomic distance matrix (Angstroms) 
 
                 H             H    
                [ 1]        [ 2]
  H    [ 1]     0.00000
  H    [ 2]     0.74474     0.00000
 @EFOL-I, Writing out completion flag to disk
 
********************************************************************************
*                          Final ZMATnew file                                  *
********************************************************************************
                                                                                
R    =        0.744733860422212                                                 
H 1 R*                                                                          
H 1 R* 2 A*                                                                     
                                                                                
R=0.958                                                                         
A=104.5                                                                         
                                                                                
*CFOUR(CALC=CCSD(T)                                                             
CC_PROG=ECC                                                                     
ABCDTYPE=AOBASIS                                                                
RELATIVISTIC=X2C1E                                                              
BASIS=DZP)                                                                      
                                                                                
********************************************************************************
--executable xjoda finished with status     0 in        0.52 seconds (walltime).
  The final electronic energy is        -1.166741786558981 a.u. 
  This computation required                           58.79 seconds (walltime).
ls: cannot access /localscratch/817346.mgmt1/umbilias.CFOURrun/817346.mgmt1: No such file or directory
